ITEM: TIMESTEP
0
ITEM: NUMBER OF ATOMS
72
ITEM: BOX BOUNDS xy xz yz pp pp pp
-4.9210000037999997e+00 9.8420000075999994e+00 -4.9210000037999997e+00
0.0000000000000000e+00 8.5234220306000008e+00 0.0000000000000000e+00
0.0000000000000000e+00 1.0800000190800001e+01 0.0000000000000000e+00
ITEM: ATOMS id type x y z c_std
1 1 2.32271 0 3.6 0.00855709
2 1 4.73396 4.69121 3.12058 0.0414879
3 1 -4.78228 8.4336 6.98223 0.00963295
4 1 -0.171148 1.65806 2.77811 0.00690926
5 1 2.59313 2.39816 9.68467 0.0127487
6 1 -3.43483 7.97385 9.55737 0.00978318
7 1 2.83239 8.49197 4.74856 0.0171404
8 1 3.19189 3.71726 5.23613 0.0205665
9 1 1.17029 2.48458 6.9832 0.00990086
10 1 -0.525269 8.18321 1.33617 0.0138927
11 1 -0.0550925 6.66673 9.51868 0.00431218
12 1 2.13237 4.88059 0.199207 0.0254876
13 1 1.55586 6.43565 2.77225 0.0191696
14 1 2.16919 8.27101 8.77138 0.0201138
15 1 8.15963 1.38216 0.24466 0.0271111
16 1 -1.05742 4.83523 2.76125 0.0239449
17 1 8.21458 2.60906 8.38867 0.0123151
18 1 4.98552 1.29625 4.69249 0.0240115
19 1 4.71197 4.357 9.67228 0.0342212
20 1 6.35014 5.77383 0.879618 0.00745519
21 1 -2.9483 5.71674 4.80614 0.00757418
22 1 4.01356 5.94472 7.2732 0.00316154
23 1 -2.14032 5.53116 7.84469 0.0109092
24 1 5.51434 2.17976 1.71772 0.0110626
25 2 3.65405 0.336325 4.54359 0.0141913
26 2 -1.14138 2.5079 9.9024 0.0130182
27 2 -2.35651 5.74523 6.27278 0.0081714
28 2 -4.79265 8.45831 8.66773 0.0175523
29 2 2.39307 0.841341 9.80866 0.00876632
30 2 0.994829 5.62992 10.1525 0.00788717
31 2 4.10478 2.8262 9.59461 0.0043782
32 2 1.31297 1.20243 3.29101 0.00259466
33 2 -0.431571 2.76156 7.24172 0.0255285
34 2 -1.97751 5.45431 1.52777 0.0157933
35 2 3.26871 4.10661 3.71721 0.0145484
36 2 2.03173 2.88256 8.26342 0.00410378
37 2 5.41372 5.88002 2.25056 0.0263162
38 2 0.145392 5.79531 3.32273 0.0141809
39 2 4.29589 2.52454 5.47308 0.0157208
40 2 7.02533 2.22496 1.09099 0.00665312
41 2 -3.27221 7.16349 4.17479 0.0132813
42 2 -0.889829 7.25981 10.7978 0.0143333
43 2 -1.86066 8.18339 2.19775 0.0355499
44 2 7.36346 1.2433 8.12818 0.024586
45 2 -3.6681 7.23679 0.196621 0.0101635
46 2 5.51278 4.85166 4.52742 0.0358438
47 2 3.32363 5.09396 6.13434 0.00732457
48 2 2.96207 7.02885 8.04401 0.0295522
49 2 -2.87485 6.83667 8.59356 0.00395468
50 2 4.83644 3.62509 1.82162 0.0123229
51 2 -0.608985 5.88967 8.25202 0.00922001
52 2 6.04494 4.67212 10.515 0.0220315
53 2 -0.440809 1.13817 1.25279 0.0130042
54 2 0.934997 7.75654 1.94326 0.00853516
55 2 -1.95402 4.72193 4.06361 0.0103659
56 2 5.21483 6.86699 6.62434 0.0326325
57 2 -0.45342 3.2787 2.67364 0.00578879
58 2 8.47785 0.868349 3.626 0.0283666
59 2 2.54275 7.03755 3.99173 0.0335556
60 2 2.33408 5.46003 1.74619 0.0126344
61 2 1.40924 0.87589 6.70092 0.0190856
62 2 8.65137 0.19858 6.11603 0.0124673
63 2 3.56362 5.30245 10.2909 0.00867496
64 2 7.35692 3.99326 8.22554 0.0153103
65 2 5.52036 1.68859 3.2496 0.0122074
66 2 7.58401 0.0350818 10.3467 0.00988896
67 2 6.28984 0.50283 5.37443 0.0257681
68 2 1.9964 3.28777 0.0855509 0.00885897
69 2 4.81647 4.77908 8.09768 0.00267149
70 2 0.585779 7.9746 8.85406 0.0224988
71 2 1.70428 3.11713 5.59119 0.00791931
72 2 4.64658 1.20063 0.822672 0.00432253
ITEM: TIMESTEP
10
ITEM: NUMBER OF ATOMS
72
ITEM: BOX BOUNDS xy xz yz pp pp pp
-4.9210000037999997e+00 9.8420000075999994e+00 -4.9210000037999997e+00
0.0000000000000000e+00 8.5234220306000008e+00 0.0000000000000000e+00
0.0000000000000000e+00 1.0800000190800001e+01 0.0000000000000000e+00
ITEM: ATOMS id type x y z c_std
1 1 2.4071 0.0176466 3.60494 0.00427588
2 1 4.72329 4.62872 3.04938 0.00899573
3 1 -4.85819 8.38292 6.99013 0.006237
4 1 -0.263437 1.61289 2.74704 0.00442361
5 1 2.58752 2.38302 9.64135 0.0204398
6 1 -3.43832 7.95302 9.55244 0.0193752
7 1 2.74235 8.48398 4.74773 0.00408045
8 1 3.1118 3.74373 5.28443 0.00666054
9 1 1.09948 2.48688 6.87712 0.0109083
10 1 -0.49477 8.17961 1.27158 0.00476254
11 1 -0.0370712 6.72293 9.61164 0.0343311
12 1 2.2204 4.96461 0.253192 0.0487264
13 1 1.56034 6.47933 2.80793 0.0130159
14 1 2.19447 8.32148 8.73033 0.0169784
15 1 8.19991 1.39835 0.199889 0.0110287
16 1 -0.980679 4.77626 2.77486 0.0154995
17 1 8.21642 2.62234 8.38142 0.00366942
18 1 4.92615 1.23798 4.74853 0.0237517
19 1 4.6972 4.39908 9.63405 0.0061629
20 1 6.40071 5.78969 0.952573 0.0146764
21 1 -3.0306 5.71217 4.84656 0.0394687
22 1 3.97886 5.93781 7.31543 0.0202762
23 1 -2.10525 5.5445 7.87898 0.00969877
24 1 5.63948 2.16523 1.74399 0.00386834
25 2 3.60196 0.3224 4.64019 0.00274104
26 2 -1.03279 2.44938 9.94536 0.0218602
27 2 -2.35864 5.75323 6.31095 0.0103724
28 2 -4.71252 8.48306 8.65387 0.0113175
29 2 2.3799 0.75614 9.78686 0.00792958
30 2 0.986275 5.64324 10.2264 0.0304386
31 2 4.23532 2.83935 9.58941 0.0100878
32 2 1.28345 1.21742 3.25789 0.0183139
33 2 -0.444294 2.79431 7.26853 0.0197946
34 2 -1.88989 5.35277 1.52311 0.00728507
35 2 3.25217 4.16271 3.65044 0.0295505
36 2 1.99988 2.9425 8.20715 0.00428737
37 2 5.36286 5.92804 2.21667 0.0236155
38 2 0.166403 5.84158 3.26104 0.0149348
39 2 4.26596 2.55433 5.58754 0.0159363
40 2 7.06995 2.15899 1.1569 0.00505547
41 2 -3.24685 7.22025 4.21592 0.0148523
42 2 -0.972051 7.39052 10.7161 0.0166787
43 2 -1.86266 8.07642 2.19516 0.0186469
44 2 7.29166 1.26519 8.07731 0.00997345
45 2 -3.56601 7.27838 0.196079 0.0467314
46 2 5.56895 4.72625 4.54692 0.0111947
47 2 3.13137 5.15092 6.11941 0.0351234
48 2 2.95811 6.96985 8.03409 0.0366436
49 2 -2.81062 6.67459 8.73336 0.0370037
50 2 4.88674 3.57231 1.82615 0.0406095
51 2 -0.580443 5.81275 8.29548 0.00957822
52 2 6.02776 4.63336 10.5402 0.0335043
53 2 -0.406944 1.05015 1.20074 0.0183692
54 2 0.971699 7.65971 1.8293 0.0353838
55 2 -1.91379 4.83711 4.07097 0.0239893
56 2 5.18257 6.81712 6.61082 0.0149018
57 2 -0.39166 3.26692 2.72837 0.024762
58 2 8.45011 0.819081 3.62337 0.0192434
59 2 2.53189 7.01472 3.97846 0.0370827
60 2 2.34899 5.53207 1.72804 0.0124195
61 2 1.30564 0.886566 6.65454 0.0210154
62 2 8.62352 0.239162 6.04599 0.0296697
63 2 3.55464 5.3678 10.2566 0.0042782
64 2 7.31869 3.99126 8.21522 0.0204428
65 2 5.63764 1.6818 3.32804 0.0188867
66 2 7.5754 0.0208255 10.3071 0.0130748
67 2 6.22752 0.525821 5.35458 0.00978114
68 2 1.92501 3.28658 0.146451 0.00439908
69 2 4.86331 4.84817 8.10377 0.00977119
70 2 0.611326 8.0117 8.74165 0.00996032
71 2 1.57516 3.27649 5.5218 0.0113603
72 2 4.67776 1.18627 0.822548 0.0255186
ITEM: TIMESTEP
20
ITEM: NUMBER OF ATOMS
72
ITEM: BOX BOUNDS xy xz yz pp pp pp
-4.9210000037999997e+00 9.8420000075999994e+00 -4.9210000037999997e+00
0.0000000000000000e+00 8.5234220306000008e+00 0.0000000000000000e+00
0.0000000000000000e+00 1.0800000190800001e+01 0.0000000000000000e+00
ITEM: ATOMS id type x y z c_std
1 1 2.37343 -0.00297942 3.56402 0.0294262
2 1 4.7159 4.63924 3.04548 0.0110623
3 1 -4.86671 8.36042 6.96589 0.0210983
4 1 -0.255602 1.55848 2.70783 0.0144569
5 1 2.62637 2.45172 9.62109 0.00294039
6 1 -3.39614 7.93813 9.60383 0.00490878
7 1 2.69099 8.57472 4.74988 0.00373719
8 1 3.11471 3.80407 5.2709 0.00256727
9 1 1.06429 2.51457 6.86079 0.0214045
10 1 -0.519481 8.15386 1.16799 0.0128853
11 1 0.0714848 6.71659 9.47496 0.0390244
12 1 2.2092 4.93697 0.229182 0.00854197
13 1 1.53021 6.58394 2.73142 0.0365862
14 1 2.24711 8.36867 8.74017 0.0320566
15 1 8.28201 1.36437 0.193829 0.010928
16 1 -0.967182 4.70283 2.83526 0.0065901
17 1 8.18461 2.64419 8.37057 0.0134649
18 1 4.84764 1.35106 4.80949 0.0102736
19 1 4.75855 4.38322 9.68344 0.0219937
20 1 6.48213 5.79051 0.967408 0.0217631
21 1 -3.04841 5.7169 4.85548 0.0137089
22 1 3.88193 5.90924 7.23966 0.0192241
23 1 -2.05904 5.51744 7.88727 0.031594
24 1 5.66231 2.05328 1.83336 0.0198729
25 2 3.5786 0.321733 4.67303 0.00798743
26 2 -1.01397 2.41593 9.8124 0.0111866
27 2 -2.3664 5.76848 6.35692 0.0145547
28 2 -4.77912 8.4511 8.68556 0.0359942
29 2 2.36096 0.824974 9.73291 0.016368
30 2 0.99357 5.75492 10.4325 0.00323951
31 2 4.21874 2.80257 9.63989 0.012847
32 2 1.24395 1.124 3.2994 0.010334
33 2 -0.461936 2.78186 7.25949 0.00615705
34 2 -1.9137 5.15097 1.48161 0.0152003
35 2 3.25946 4.25615 3.73765 0.0146954
36 2 1.95659 2.95688 8.15604 0.00427259
37 2 5.23055 5.90907 2.13927 0.00829857
38 2 0.252904 5.73184 3.20088 0.0113685
39 2 4.21454 2.614 5.65125 0.0019853
40 2 7.20817 2.12517 1.16026 0.0456445
41 2 -3.22193 7.26291 4.36243 0.0170303
42 2 -0.919157 7.38796 10.6281 0.0122187
43 2 -1.69714 8.02951 2.25358 0.0156808
44 2 7.29913 1.34591 8.00016 0.0169316
45 2 -3.66603 7.25402 0.320468 0.0432832
46 2 5.48105 4.68556 4.46137 0.0181127
47 2 3.01806 5.11404 6.19726 0.0384215
48 2 2.90758 7.02182 8.05141 0.0303218
49 2 -2.83101 6.63589 8.76307 0.013377
50 2 4.96033 3.53301 1.86422 0.0199996
51 2 -0.558907 5.67977 8.43697 0.00591315
52 2 6.06706 4.7218 10.6601 0.0212211
53 2 -0.356721 0.954712 1.1994 0.00483872
54 2 0.93766 7.71409 1.75322 0.0163561
55 2 -1.91184 4.8999 4.09046 0.00469765
56 2 5.07747 6.77158 6.56469 0.0238755
57 2 -0.323404 3.19259 2.70929 0.00971172
58 2 8.41359 0.926221 3.57461 0.00965258
59 2 2.45733 7.06995 4.05799 0.0200439
60 2 2.39959 5.55698 1.77059 0.0280362
61 2 1.20438 0.880567 6.43348 0.00791226
62 2 8.62335 0.180353 5.99526 0.0183446
63 2 3.57347 5.40719 10.267 0.0214158
64 2 7.33845 3.97814 8.23316 0.0251578
65 2 5.61493 1.67973 3.38517 0.0286598
66 2 7.65206 0.0418705 10.276 0.00829721
67 2 6.14561 0.45388 5.39202 0.0158436
68 2 2.01223 3.33239 0.0446769 0.0213375
69 2 4.85752 4.95667 8.13662 0.00750834
70 2 0.693372 7.9435 8.71069 0.0122716
71 2 1.49222 3.34791 5.52865 0.0140843
72 2 4.70347 1.18628 0.920526 0.00798271
ITEM: TIMESTEP
30
ITEM: NUMBER OF ATOMS
72
ITEM: BOX BOUNDS xy xz yz pp pp pp
-4.9210000037999997e+00 9.8420000075999994e+00 -4.9210000037999997e+00
0.0000000000000000e+00 8.5234220306000008e+00 0.0000000000000000e+00
0.0000000000000000e+00 1.0800000190800001e+01 0.0000000000000000e+00
ITEM: ATOMS id type x y z c_std
1 1 2.39236 -0.093473 3.65755 0.00210809
2 1 4.69664 4.66839 3.02148 0.0174038
3 1 -4.8169 8.34094 6.93354 0.025318
4 1 -0.181405 1.53044 2.7237 0.00537471
5 1 2.65712 2.45515 9.52449 0.0206894
6 1 -3.43566 7.95179 9.62112 0.0100672
7 1 2.6142 8.66447 4.73479 0.0133628
8 1 3.0163 3.81216 5.25695 0.00650262
9 1 1.08425 2.48245 6.84761 0.0242256
10 1 -0.542285 8.13836 1.11524 0.0183737
11 1 0.157794 6.62529 9.42343 0.0175405
12 1 2.24718 5.00565 0.27635 0.00690783
13 1 1.5638 6.55539 2.68454 0.00898366
14 1 2.33363 8.37998 8.69005 0.016165
15 1 8.33268 1.36919 0.230411 0.0148981
16 1 -0.959461 4.65227 2.82683 0.0055061
17 1 8.18583 2.6235 8.3049 0.00683824
18 1 4.82344 1.36419 4.88041 0.0230296
19 1 4.76889 4.42832 9.73222 0.00922559
20 1 6.43059 5.76852 1.00868 0.0132879
21 1 -3.03018 5.71652 4.91115 0.0214477
22 1 3.86866 5.95949 7.32825 0.0295989
23 1 -2.12324 5.523 7.90275 0.00882219
24 1 5.73039 2.02646 1.88639 0.0214145
25 2 3.53114 0.493715 4.58173 0.0101732
26 2 -1.02969 2.37967 9.84012 0.00950534
27 2 -2.3861 5.75572 6.34745 0.0104161
28 2 -4.69184 8.34667 8.5877 0.0261369
29 2 2.33719 0.887001 9.71705 0.0203737
30 2 1.02636 5.8636 10.5447 0.00944781
31 2 4.25833 2.88307 9.64286 0.019325
32 2 1.23424 0.993727 3.29616 0.0168662
33 2 -0.509521 2.77918 7.18355 0.00722147
34 2 -1.96291 5.07481 1.56083 0.0337282
35 2 3.24096 4.30459 3.7199 0.00769048
36 2 1.98144 2.88348 8.14184 0.0157327
37 2 5.2826 5.91311 2.11828 0.0109746
38 2 0.324907 5.60092 3.11811 0.0105455
39 2 4.1729 2.67844 5.65277 0.0128516
40 2 7.17841 2.05353 1.17865 0.0150828
41 2 -3.27465 7.22252 4.39031 0.0180278
42 2 -0.912512 7.32506 10.5047 0.021813
43 2 -1.68807 7.95326 2.30061 0.0160407
44 2 7.28742 1.30389 7.98644 0.0190206
45 2 -3.64676 7.33827 0.301732 0.0509557
46 2 5.54982 4.85817 4.47075 0.0077802
47 2 2.98353 5.099 6.33132 0.0153958
48 2 2.91544 7.0549 8.00448 0.00928275
49 2 -2.83355 6.78001 8.7175 0.0137141
50 2 5.02235 3.47548 1.97536 0.0127831
51 2 -0.507776 5.5251 8.43223 0.0106395
52 2 6.10718 4.67421 10.5631 0.0128193
53 2 -0.270703 0.91717 1.17862 0.0169269
54 2 0.978388 7.8145 1.76672 0.0270142
55 2 -1.87956 4.82958 4.09615 0.0162723
56 2 5.04783 6.80804 6.46358 0.0269776
57 2 -0.315753 3.15018 2.65118 0.00440018
58 2 8.26451 1.0516 3.59446 0.00923181
59 2 2.26618 7.22643 3.97257 0.0140943
60 2 2.45155 5.55176 1.77306 0.0132426
61 2 1.11314 0.957816 6.35529 0.0022265
62 2 8.56534 0.147982 6.02552 0.0275796
63 2 3.59374 5.29527 10.3166 0.0319859
64 2 7.27781 3.98028 8.28749 0.0136764
65 2 5.53361 1.69436 3.45866 0.0166115
66 2 7.73206 0.0550814 10.2793 0.00604511
67 2 6.05936 0.506906 5.49473 0.00477834
68 2 2.02014 3.38629 0.00388917 0.00849716
69 2 4.73514 4.95901 8.22201 0.0255814
70 2 0.742627 7.96065 8.65814 0.0283203
71 2 1.55851 3.25832 5.54745 0.0101072
72 2 4.63833 1.22975 0.906541 0.0320366
ITEM: TIMESTEP
40
ITEM: NUMBER OF ATOMS
72
ITEM: BOX BOUNDS xy xz yz pp pp pp
-4.9210000037999997e+00 9.8420000075999994e+00 -4.9210000037999997e+00
0.0000000000000000e+00 8.5234220306000008e+00 0.0000000000000000e+00
0.0000000000000000e+00 1.0800000190800001e+01 0.0000000000000000e+00
ITEM: ATOMS id type x y z c_std
1 1 2.43549 -0.159312 3.59954 0.0128312
2 1 4.71893 4.69359 3.08965 0.0204382
3 1 -4.89106 8.32992 6.76858 0.0280889
4 1 -0.226954 1.49569 2.79081 0.00617903
5 1 2.67613 2.44597 9.60033 0.013314
6 1 -3.40727 8.00577 9.56741 0.0281402
7 1 2.53945 8.74937 4.77944 0.0114741
8 1 3.04286 3.87814 5.30932 0.00558014
9 1 1.02055 2.47509 6.83636 0.0106538
10 1 -0.530454 8.15367 1.14962 0.00853098
11 1 0.0965654 6.61835 9.44498 0.01744
12 1 2.26037 4.95838 0.34632 0.0118012
13 1 1.50272 6.5591 2.66072 0.0219039
14 1 2.27986 8.38259 8.73944 0.0117625
15 1 8.32818 1.35362 0.232521 0.0064753
16 1 -0.985313 4.61304 2.77397 0.004347
17 1 8.20673 2.64913 8.3165 0.00280041
18 1 4.83677 1.41462 4.91429 0.00188642
19 1 4.78375 4.40618 9.72064 0.00155506
20 1 6.41623 5.78023 0.938075 0.013625
21 1 -2.93857 5.65039 4.88373 0.0149756
22 1 3.93521 5.97673 7.27343 0.050307
23 1 -2.13906 5.50129 8.02064 0.00545597
24 1 5.62607 2.00914 1.87946 0.00842831
25 2 3.44087 0.595977 4.64653 0.0207339
26 2 -1.05712 2.4219 9.83715 0.0115218
27 2 -2.33876 5.71365 6.39267 0.00982436
28 2 -4.67317 8.35819 8.50805 0.011194
29 2 2.30618 0.857508 9.77051 0.00743189
30 2 1.10388 5.8972 10.445 0.0243474
31 2 4.28314 2.83018 9.56292 0.00968381
32 2 1.20572 0.920094 3.29139 0.00312012
33 2 -0.526345 2.80101 7.13514 0.00616421
34 2 -2.04291 5.18295 1.6396 0.0134848
35 2 3.20594 4.31679 3.7333 0.0226473
36 2 2.04866 2.8351 8.10182 0.0117376
37 2 5.2826 5.96596 2.18277 0.00327475
38 2 0.317633 5.5241 3.01094 0.0160415
39 2 4.21428 2.73855 5.63677 0.0158492
40 2 7.10007 1.98715 1.2158 0.0133914
41 2 -3.25247 7.16276 4.36304 0.0216571
42 2 -0.889001 7.35584 10.5872 0.00832534
43 2 -1.73375 7.82703 2.24178 0.0282254
44 2 7.29805 1.30205 7.98295 0.00150958
45 2 -3.53647 7.23381 0.205164 0.00380518
46 2 5.46969 4.92921 4.51902 0.00098983
47 2 3.00381 5.04418 6.3424 0.00508995
48 2 2.9984 7.031 8.02319 0.0124222
49 2 -2.71237 6.87304 8.59996 0.00446174
50 2 5.10592 3.51278 1.98425 0.0188538
51 2 -0.548367 5.55572 8.36042 0.00315057
52 2 6.16326 4.70151 10.5062 0.0109125
53 2 -0.267202 0.985418 1.21336 0.0135979
54 2 0.918408 7.77221 1.76767 0.0267503
55 2 -1.80728 4.75422 4.1847 0.0439328
56 2 5.07306 6.69716 6.46729 0.0184187
57 2 -0.321406 3.16037 2.58867 0.012058
58 2 8.26979 1.16025 3.64217 0.00433484
59 2 2.18465 7.37323 3.92696 0.0117508
60 2 2.58214 5.59845 1.8063 0.00418099
61 2 1.18922 0.835533 6.40002 0.0118496
62 2 8.48654 0.166155 6.01403 0.0187555
63 2 3.68175 5.43014 10.4305 0.0193405
64 2 7.2243 3.96596 8.27703 0.0163914
65 2 5.57958 1.65299 3.48408 0.00679823
66 2 7.79258 0.00705929 10.218 0.00529308
67 2 6.0842 0.651849 5.64053 0.0138054
68 2 1.96213 3.37051 -0.0569196 0.023962
69 2 4.77733 4.96378 8.23602 0.00430608
70 2 0.752276 7.87779 8.66638 0.00357391
71 2 1.52225 3.18111 5.41637 0.0163562
72 2 4.5807 1.21627 0.914816 0.0170807
ITEM: TIMESTEP
50
ITEM: NUMBER OF ATOMS
72
ITEM: BOX BOUNDS xy xz yz pp pp pp
-4.9210000037999997e+00 9.8420000075999994e+00 -4.9210000037999997e+00
0.0000000000000000e+00 8.5234220306000008e+00 0.0000000000000000e+00
0.0000000000000000e+00 1.0800000190800001e+01 0.0000000000000000e+00
ITEM: ATOMS id type x y z c_std
1 1 2.39085 -0.109136 3.56065 0.00439473
2 1 4.73913 4.77785 3.1372 0.00697771
3 1 -4.87929 8.30868 6.78306 0.0271456
4 1 -0.272076 1.54627 2.78864 0.00827366
5 1 2.63966 2.42219 9.57046 0.0220699
6 1 -3.42566 8.00612 9.39361 0.00422252
7 1 2.45599 8.81918 4.76114 0.0136475
8 1 3.04073 3.79194 5.2828 0.0045134
9 1 1.09898 2.40626 6.77639 0.0175464
10 1 -0.593184 8.11734 1.19884 0.0211904
11 1 0.0369922 6.63672 9.54536 0.0136778
12 1 2.32901 5.01413 0.293135 0.0307426
13 1 1.49696 6.57131 2.70801 0.0143314
14 1 2.25798 8.31038 8.72607 0.0298492
15 1 8.24389 1.35501 0.220687 0.00660793
16 1 -1.03273 4.58781 2.75886 0.0165621
17 1 8.17039 2.62556 8.38151 0.00251816
18 1 4.77936 1.46441 4.89569 0.0483493
19 1 4.75816 4.39554 9.70183 0.0120469
20 1 6.36961 5.80138 0.929052 0.0450721
21 1 -2.85317 5.58416 4.93625 0.0173683
22 1 3.95818 5.91657 7.29688 0.00652295
23 1 -2.13826 5.50186 7.92676 0.0162323
24 1 5.57923 2.04212 1.8733 0.0267527
25 2 3.47265 0.541503 4.64194 0.0118607
26 2 -1.09045 2.47553 9.89519 0.00453804
27 2 -2.30935 5.60382 6.41266 0.0287593
28 2 -4.71822 8.46725 8.47145 0.0366151
29 2 2.33517 0.852456 9.912 0.0178486
30 2 1.19404 5.76262 10.2879 0.0172075
31 2 4.2532 2.84257 9.5713 0.0111742
32 2 1.17101 0.883902 3.27601 0.0100993
33 2 -0.493709 2.81527 7.16001 0.0143823
34 2 -2.05981 5.27999 1.6387 0.0303236
35 2 3.30264 4.31791 3.77382 0.00149534
36 2 2.02782 2.77581 8.0489 0.00609022
37 2 5.29151 5.96438 2.15301 0.0118192
38 2 0.262504 5.57576 2.92507 0.007511
39 2 4.30793 2.82333 5.66519 0.0141954
40 2 7.04791 1.88617 1.15136 0.0258691
41 2 -3.01591 7.07464 4.30419 0.0271951
42 2 -0.861871 7.33161 10.6399 0.00670327
43 2 -1.75624 7.84285 2.24708 0.0168185
44 2 7.3312 1.30113 8.08672 0.0140667
45 2 -3.52005 7.20065 0.0635716 0.0198573
46 2 5.49923 4.8613 4.60653 0.0331632
47 2 2.98172 5.0865 6.30426 0.00772431
48 2 3.04439 7.05256 8.07692 0.00227978
49 2 -2.53812 6.921 8.54783 0.0333263
50 2 5.08853 3.63133 1.99361 0.0238019
51 2 -0.57294 5.65111 8.43864 0.013937
52 2 6.18313 4.68725 10.5342 0.0247604
53 2 -0.399216 1.02791 1.25561 0.0113848
54 2 0.874129 7.70555 1.72524 0.0272352
55 2 -1.7306 4.63127 4.21185 0.021758
56 2 5.15642 6.7663 6.38376 0.00838205
57 2 -0.344876 3.11436 2.54381 0.0163685
58 2 8.33362 1.18513 3.78489 0.00308059
59 2 2.14475 7.40391 3.95593 0.0150754
60 2 2.50791 5.70172 1.82121 0.0217129
61 2 1.24491 0.841595 6.44112 0.0111024
62 2 8.50965 0.154504 5.97412 0.0218615
63 2 3.77345 5.32041 10.5226 0.0389323
64 2 7.23881 3.94778 8.26665 0.0147674
65 2 5.62168 1.53974 3.42856 0.013512
66 2 7.80246 -0.00884082 10.2799 0.00750432
67 2 6.09071 0.839999 5.6788 0.011508
68 2 1.97596 3.42593 0.0235426 0.0329927
69 2 4.90827 4.99027 8.16163 0.00714521
70 2 0.685523 7.85687 8.69437 0.00674555
71 2 1.56473 3.18499 5.42662 0.0217087
72 2 4.45235 1.23865 0.98837 0.0195915
ITEM: TIMESTEP
60
ITEM: NUMBER OF ATOMS
72
ITEM: BOX BOUNDS xy xz yz pp pp pp
-4.9210000037999997e+00 9.8420000075999994e+00 -4.9210000037999997e+00
0.0000000000000000e+00 8.5234220306000008e+00 0.0000000000000000e+00
0.0000000000000000e+00 1.0800000190800001e+01 0.0000000000000000e+00
ITEM: ATOMS id type x y z c_std
1 1 2.36857 -0.0834735 3.65325 0.0449057
2 1 4.83078 4.79273 3.13864 0.0324527
3 1 -4.872 8.35768 6.81793 0.00561975
4 1 -0.301511 1.57951 2.75244 0.00588929
5 1 2.57183 2.44312 9.61063 0.00670217
6 1 -3.38433 8.01889 9.39801 0.0127151
7 1 2.5081 8.85555 4.82241 0.0039877
8 1 3.09102 3.84309 5.28924 0.00771806
9 1 1.07074 2.39696 6.82308 0.022759
10 1 -0.633133 8.18079 1.2445 0.00898872
11 1 0.0930439 6.63933 9.53472 0.0300152
12 1 2.32779 5.0337 0.282456 0.0484583
13 1 1.44124 6.60071 2.7275 0.0233933
14 1 2.27632 8.23531 8.77954 0.00768262
15 1 8.15701 1.33932 0.211176 0.036212
16 1 -1.05434 4.66 2.76817 0.0122271
17 1 8.23978 2.61888 8.36639 0.0113553
18 1 4.81141 1.46186 4.80554 0.0109406
19 1 4.89694 4.3363 9.65508 0.0178013
20 1 6.37183 5.83553 0.868306 0.0148579
21 1 -2.82013 5.51192 4.83559 0.00367622
22 1 3.98601 5.91815 7.21837 0.0192585
23 1 -2.05373 5.50363 7.92685 0.00953047
24 1 5.5145 2.11184 1.85815 0.0258509
25 2 3.53598 0.517878 4.55807 0.0115308
26 2 -1.12956 2.49991 9.99184 0.0112793
27 2 -2.24318 5.52184 6.35097 0.0120624
28 2 -4.71443 8.53356 8.50832 0.0181586
29 2 2.28545 0.869286 9.88006 0.00936448
30 2 1.23264 5.68717 10.1353 0.00647868
31 2 4.1667 2.87633 9.56054 0.0059707
32 2 1.10867 0.941647 3.28095 0.00613684
33 2 -0.430842 2.72473 7.33063 0.0151054
34 2 -2.05976 5.24618 1.60721 0.0156226
35 2 3.3185 4.3491 3.72093 0.0110349
36 2 2.05044 2.73283 8.1074 0.00562095
37 2 5.24916 6.0955 2.16382 0.0227792
38 2 0.196184 5.67882 2.97629 0.00618437
39 2 4.29343 2.76359 5.66514 0.00961241
40 2 6.88403 1.90273 1.09686 0.00877226
41 2 -2.78068 7.01017 4.28458 0.0295137
42 2 -0.943817 7.24084 10.6991 0.0215369
43 2 -1.85001 7.97038 2.27306 0.0239716
44 2 7.31868 1.23009 8.15179 0.0187346
45 2 -3.68066 7.20574 -0.035309 0.0171348
46 2 5.68008 4.80036 4.526 0.00229325
47 2 3.01974 5.11499 6.27635 0.0119187
48 2 3.07766 6.96909 8.07766 0.00441799
49 2 -2.59401 7.0186 8.42628 0.00856868
50 2 5.06642 3.58825 2.12832 0.0227846
51 2 -0.567158 5.55174 8.5367 0.0201129
52 2 6.15816 4.57444 10.5874 0.0160314
53 2 -0.538354 0.912903 1.24967 0.012058
54 2 0.889327 7.74919 1.70228 0.0228035
55 2 -1.75415 4.47896 4.16321 0.0217884
56 2 5.07744 6.76558 6.45954 0.00549941
57 2 -0.363574 3.20245 2.50444 0.00603329
58 2 8.34906 1.22029 3.82229 0.00699875
59 2 2.09104 7.37114 4.05813 0.0156204
60 2 2.42387 5.71556 1.72794 0.0141108
61 2 1.26862 0.798573 6.32498 0.0111417
62 2 8.51812 0.111334 6.00134 0.0179545
63 2 3.81168 5.27966 10.5016 0.00957012
64 2 7.31174 3.94856 8.28617 0.0111744
65 2 5.54333 1.50291 3.36683 0.0276043
66 2 7.70426 -0.0686874 10.284 0.00629836
67 2 6.115 0.933756 5.61176 0.0309766
68 2 2.10958 3.3869 0.0339394 0.0191289
69 2 4.94151 5.00158 8.19029 0.0198212
70 2 0.693546 7.92936 8.74158 0.0103136
71 2 1.58069 3.14182 5.4839 0.0022451
72 2 4.3442 1.25808 1.11867 0.021731
ITEM: TIMESTEP
70
ITEM: NUMBER OF ATOMS
72
ITEM: BOX BOUNDS xy xz yz pp pp pp
-4.9210000037999997e+00 9.8420000075999994e+00 -4.9210000037999997e+00
0.0000000000000000e+00 8.5234220306000008e+00 0.0000000000000000e+00
0.0000000000000000e+00 1.0800000190800001e+01 0.0000000000000000e+00
ITEM: ATOMS id type x y z c_std
1 1 2.35454 -0.0431519 3.66131 0.0327216
2 1 4.78508 4.8567 3.09175 0.0241903
3 1 -4.84197 8.39821 6.85911 0.0240985
4 1 -0.319892 1.59364 2.71439 0.00684728
5 1 2.62954 2.47112 9.65243 0.0187066
6 1 -3.38688 8.02556 9.43992 0.0304601
7 1 2.60547 8.77878 4.82708 0.0177796
8 1 3.09014 3.85205 5.2206 0.0143304
9 1 1.16615 2.36169 6.85626 0.00627294
10 1 -0.674559 8.19391 1.22622 0.0204092
11 1 0.0899748 6.63193 9.54986 0.00623056
12 1 2.38774 4.98808 0.239028 0.0270375
13 1 1.43977 6.71684 2.71692 0.0208673
14 1 2.33123 8.24975 8.78468 0.0110325
15 1 8.06237 1.30346 0.245518 0.0202942
16 1 -1.01681 4.68913 2.6851 0.0318422
17 1 8.19118 2.55878 8.50581 0.0173213
18 1 4.88188 1.47272 4.78311 0.0327144
19 1 4.88315 4.31356 9.66741 0.0186679
20 1 6.33826 5.82608 0.898298 0.0100489
21 1 -2.65816 5.45799 4.8443 0.00529582
22 1 4.0024 5.94741 7.2724 0.0429465
23 1 -2.0287 5.50572 7.91668 0.0121735
24 1 5.449 2.07681 1.82371 0.0107746
25 2 3.54424 0.559361 4.60225 0.0170263
26 2 -1.17687 2.43257 10.0137 0.00876114
27 2 -2.15869 5.48936 6.32048 0.035083
28 2 -4.67172 8.54607 8.5041 0.00450378
29 2 2.27144 0.876903 9.82901 0.0109904
30 2 1.28677 5.71701 10.1054 0.0425079
31 2 4.24264 2.79084 9.4768 0.0103458
32 2 1.09819 0.95859 3.37116 0.00384367
33 2 -0.365359 2.64058 7.35352 0.0104427
34 2 -2.10348 5.25183 1.58348 0.03493
35 2 3.32445 4.4756 3.76386 0.00703547
36 2 2.04792 2.75276 8.16632 0.0186613
37 2 5.31123 6.06857 2.14449 0.0229968
38 2 0.0906719 5.79847 3.17687 0.0193208
39 2 4.19375 2.70259 5.56749 0.00202776
40 2 6.8115 2.00598 0.989097 0.0152441
41 2 -2.77362 6.99361 4.33398 0.0283835
42 2 -0.887553 7.1991 10.7469 0.0122976
43 2 -1.97841 8.03983 2.17908 0.0094796
44 2 7.38068 1.19677 8.13136 0.00126248
45 2 -3.82892 7.15478 -0.0374931 0.0458069
46 2 5.67527 4.76368 4.45565 0.0207935
47 2 3.06443 5.11356 6.2603 0.00433382
48 2 2.97793 6.90894 8.10565 0.0192707
49 2 -2.69281 6.99006 8.31529 0.0116813
50 2 5.09588 3.59131 2.06566 0.0389968
51 2 -0.552486 5.48564 8.55466 0.0187862
52 2 6.20989 4.49366 10.6499 0.0293552
53 2 -0.630047 0.822236 1.33925 0.0103796
54 2 0.837218 7.87451 1.7191 0.0173279
55 2 -1.79631 4.32228 4.10511 0.0282496
56 2 5.17977 6.79816 6.43488 0.0241836
57 2 -0.320392 3.22871 2.39127 0.0059647
58 2 8.30386 1.26334 3.74702 0.00471541
59 2 2.0678 7.38798 4.09199 0.0110752
60 2 2.31888 5.70283 1.7368 0.0158892
61 2 1.18673 0.831368 6.25194 0.00527588
62 2 8.48996 0.129464 6.13276 0.0191621
63 2 3.83169 5.29688 10.3974 0.00300838
64 2 7.36515 3.97825 8.30118 0.0161422
65 2 5.54123 1.53421 3.32897 0.0157832
66 2 7.63652 -0.127528 10.3664 0.00294405
67 2 6.19653 0.90144 5.5713 0.0137074
68 2 2.04618 3.38109 0.171155 0.0216012
69 2 4.9351 4.96485 8.18652 0.00738443
70 2 0.697318 7.94274 8.76834 0.0133232
71 2 1.65976 3.21722 5.53325 0.00734196
72 2 4.21353 1.34543 1.03038 0.00594569
ITEM: TIMESTEP
80
ITEM: NUMBER OF ATOMS
72
ITEM: BOX BOUNDS xy xz yz pp pp pp
-4.9210000037999997e+00 9.8420000075999994e+00 -4.9210000037999997e+00
0.0000000000000000e+00 8.5234220306000008e+00 0.0000000000000000e+00
0.0000000000000000e+00 1.0800000190800001e+01 0.0000000000000000e+00
ITEM: ATOMS id type x y z c_std
1 1 2.37789 -0.0881168 3.64027 0.0111916
2 1 4.78752 4.80129 3.11926 0.0350852
3 1 -4.80934 8.35305 6.84714 0.029089
4 1 -0.288839 1.6073 2.76538 0.0174844
5 1 2.71976 2.42455 9.70243 0.0232462
6 1 -3.43453 7.9616 9.42038 0.039232
7 1 2.65184 8.77444 4.8132 0.0171409
8 1 3.08778 3.9166 5.24679 0.00709227
9 1 1.16642 2.43758 6.90095 0.0109622
10 1 -0.790404 8.25251 1.16262 0.0416535
11 1 0.150289 6.61037 9.55526 0.0326666
12 1 2.34991 5.01816 0.286934 0.0259071
13 1 1.36162 6.72162 2.7134 0.0280913
14 1 2.26261 8.23124 8.8015 0.0160393
15 1 8.02409 1.2173 0.345836 0.0474269
16 1 -0.924636 4.65958 2.67351 0.0137798
17 1 8.26316 2.57887 8.46125 0.00582525
18 1 4.89421 1.40664 4.81219 0.0295234
19 1 4.85913 4.28932 9.65934 0.0132646
20 1 6.34005 5.73129 0.878449 0.00486658
21 1 -2.68441 5.42462 4.79957 0.0113961
22 1 4.04803 5.9506 7.30888 0.0212407
23 1 -2.0756 5.48915 7.91984 0.0134422
24 1 5.38313 2.10156 1.75264 0.0167284
25 2 3.53756 0.558634 4.60371 0.0130818
26 2 -1.15852 2.30468 10.0864 0.0113881
27 2 -2.01626 5.46419 6.27068 0.0221964
28 2 -4.70796 8.5236 8.51829 0.0035596
29 2 2.35518 0.813075 9.89166 0.00585254
30 2 1.32064 5.79259 10.1921 0.0286891
31 2 4.35966 2.7747 9.51491 0.015452
32 2 1.06599 0.970766 3.43469 0.0101963
33 2 -0.38645 2.58208 7.4035 0.00735936
34 2 -2.02021 5.33532 1.59399 0.0100931
35 2 3.25438 4.64493 3.72456 0.0211479
36 2 2.07678 2.84621 8.17484 0.0189984
37 2 5.25396 6.07272 2.14852 0.0201859
38 2 0.0452104 5.92093 3.22132 0.0138723
39 2 4.23513 2.78857 5.48263 0.0115643
40 2 6.76015 2.06493 0.921805 0.0218322
41 2 -2.85099 6.99907 4.34941 0.0123412
42 2 -0.839111 7.19018 10.7056 0.00733724
43 2 -2.07998 8.05266 2.11009 0.012944
44 2 7.3929 1.22954 8.13473 0.0147548
45 2 -3.77017 7.10154 -0.0400263 0.0204562
46 2 5.67984 4.88766 4.48628 0.0191233
47 2 3.1901 5.10717 6.26912 0.0062344
48 2 2.96212 6.89811 8.12871 0.0226936
49 2 -2.6821 6.86506 8.45432 0.00641244
50 2 5.0013 3.70493 1.93214 0.0120545
51 2 -0.567934 5.63746 8.53724 0.00345183
52 2 6.15381 4.56969 10.6042 0.034892
53 2 -0.693148 0.807618 1.40016 0.00941243
54 2 0.76737 7.99134 1.8064 0.0145768
55 2 -1.75041 4.30775 3.98811 0.0252611
56 2 5.16809 6.81722 6.5154 0.017209
57 2 -0.217831 3.19391 2.22573 0.0148585
58 2 8.26872 1.22057 3.74579 0.00629088
59 2 2.17711 7.39929 3.98623 0.0101322
60 2 2.22451 5.71733 1.75821 0.0320412
61 2 1.22583 0.905112 6.25307 0.0159967
62 2 8.50588 0.132787 6.14082 0.0247342
63 2 3.77519 5.2808 10.3981 0.00273176
64 2 7.31826 3.90476 8.34087 0.011071
65 2 5.57419 1.59173 3.28307 0.0127161
66 2 7.62389 -0.13995 10.3786 0.0191731
67 2 6.20601 0.838507 5.55303 0.0143405
68 2 2.08629 3.34313 0.129405 0.00521129
69 2 4.94738 4.93032 8.15074 0.0182322
70 2 0.681469 7.87709 8.7793 0.0560222
71 2 1.58782 3.29105 5.58095 0.013504
72 2 4.22815 1.30645 0.880125 0.0239464
ITEM: TIMESTEP
90
ITEM: NUMBER OF ATOMS
72
ITEM: BOX BOUNDS xy xz yz pp pp pp
-4.9210000037999997e+00 9.8420000075999994e+00 -4.9210000037999997e+00
0.0000000000000000e+00 8.5234220306000008e+00 0.0000000000000000e+00
0.0000000000000000e+00 1.0800000190800001e+01 0.0000000000000000e+00
ITEM: ATOMS id type x y z c_std
1 1 2.32318 -0.133719 3.62677 0.00635994
2 1 4.75543 4.80583 3.10754 0.0129328
3 1 -4.78103 8.42204 6.80823 0.0119874
4 1 -0.23901 1.59314 2.82177 0.0258278
5 1 2.76686 2.30603 9.68128 0.0122218
6 1 -3.4309 7.92357 9.47264 0.00880514
7 1 2.61113 8.76544 4.7862 0.015812
8 1 3.07784 3.95577 5.23279 0.00442474
9 1 1.17963 2.5195 6.93626 0.0222884
10 1 -0.802252 8.23194 1.11455 0.0112259
11 1 0.093288 6.61926 9.54184 0.0113893
12 1 2.32242 4.95421 0.365827 0.0264939
13 1 1.29379 6.79869 2.70628 0.0160113
14 1 2.25518 8.26634 8.77207 0.023015
15 1 8.04253 1.22887 0.332055 0.0177023
16 1 -0.904824 4.63435 2.63191 0.0100691
17 1 8.25932 2.51597 8.53689 0.00661831
18 1 4.85175 1.4472 4.71576 0.0105016
19 1 4.82372 4.33373 9.64728 0.0138933
20 1 6.38285 5.75472 0.940916 0.022425
21 1 -2.69587 5.47791 4.77791 0.00667167
22 1 4.03766 5.96966 7.37885 0.0183964
23 1 -2.07224 5.39193 7.8691 0.0105729
24 1 5.35798 2.16665 1.74569 0.0158297
25 2 3.54445 0.455796 4.51604 0.0188392
26 2 -1.0946 2.22428 10.0319 0.00503908
27 2 -2.00292 5.43099 6.27352 0.0300997
28 2 -4.70381 8.47797 8.52922 0.0194196
29 2 2.38571 0.725954 9.86117 0.0175319
30 2 1.26921 5.80196 10.2644 0.0179392
31 2 4.32719 2.71959 9.60851 0.0199843