 vasp.6.0.8 29Jun18 (build Mar 14 2019 11:44:20) complex                        
  
 executed on             LinuxIFC date 2021.02.02  21:41:32
 running   64 mpi-ranks, with    1 threads/rank
 distrk:  each k-point on   16 cores,    4 groups
 distr:  one band on NCORES_PER_BAND=   4 cores,    4 groups


--------------------------------------------------------------------------------------------------------


 INCAR:
 POTCAR:    PAW_PBE Ge 05Jan2001                  
 POTCAR:    PAW_PBE Sb 06Sep2000                  
 POTCAR:    PAW_PBE Te 08Apr2002                  
 POTCAR:    PAW_PBE Ge 05Jan2001                  
   VRHFIN =Ge: s2p2                                                             
   LEXCH  = PE                                                                  
   EATOM  =   104.9960 eV,    7.7170 Ry                                         
                                                                                
   TITEL  = PAW_PBE Ge 05Jan2001                                                
   LULTRA =        F    use ultrasoft PP ?                                      
   IUNSCR =        1    unscreen: 0-lin 1-nonlin 2-no                           
   RPACOR =    2.170    partial core radius                                     
   POMASS =   72.610; ZVAL   =    4.000    mass and valenz                      
   RCORE  =    2.300    outmost cutoff radius                                   
   RWIGS  =    2.300; RWIGS  =    1.217    wigner-seitz radius (au A)           
   ENMAX  =  173.807; ENMIN  =  130.355 eV                                      
   ICORE  =        3    local potential                                         
   LCOR   =        T    correct aug charges                                     
   LPAW   =        T    paw PP                                                  
   EAUG   =  385.843                                                            
   DEXC   =    0.000                                                            
   RMAX   =    2.342    core radius for proj-oper                               
   RAUG   =    1.300    factor for augmentation sphere                          
   RDEP   =    2.318    radius for radial grids                                 
   RDEPT  =    2.103    core radius for aug-charge                              
                                                                                
   Atomic configuration                                                         
   10 entries                                                                   
     n  l   j            E        occ.                                          
     1  0  0.50    -10959.8463   2.0000                                         
     2  0  0.50     -1371.6056   2.0000                                         
     2  1  1.50     -1198.4791   6.0000                                         
     3  0  0.50      -168.4733   2.0000                                         
     3  1  1.50      -115.6019   6.0000                                         
     3  2  2.50       -29.3106  10.0000                                         
     4  0  0.50       -11.7309   2.0000                                         
     4  1  0.50        -3.8952   2.0000                                         
     4  2  1.50        -4.0817   0.0000                                         
     4  3  2.50        -4.0817   0.0000                                         
   Description                                                                  
     l       E           TYP  RCUT    TYP  RCUT                                 
     0    -11.7309493     23  2.300                                             
     0     -7.4578696     23  2.300                                             
     1     -3.8952261     23  2.300                                             
     1      6.1178114     23  2.300                                             
     2     -4.0817478     23  2.300                                             
     3     -1.3605826      7  2.300                                             
  local pseudopotential read in
  partial core-charges read in
  partial kinetic energy density read in
  atomic valenz-charges read in
  non local Contribution for L=           0  read in
    real space projection operators read in
  non local Contribution for L=           0  read in
    real space projection operators read in
  non local Contribution for L=           1  read in
    real space projection operators read in
  non local Contribution for L=           1  read in
    real space projection operators read in
  non local Contribution for L=           2  read in
    real space projection operators read in
    PAW grid and wavefunctions read in
 
   number of l-projection  operators is LMAX  =           5
   number of lm-projection operators is LMMAX =          13
 
 POTCAR:    PAW_PBE Sb 06Sep2000                  
   VRHFIN =Sb: s2p3                                                             
   LEXCH  = PE                                                                  
   EATOM  =   149.9515 eV,   11.0211 Ry                                         
                                                                                
   TITEL  = PAW_PBE Sb 06Sep2000                                                
   LULTRA =        F    use ultrasoft PP ?                                      
   IUNSCR =        1    unscreen: 0-lin 1-nonlin 2-no                           
   RPACOR =    2.200    partial core radius                                     
   POMASS =  121.750; ZVAL   =    5.000    mass and valenz                      
   RCORE  =    2.300    outmost cutoff radius                                   
   RWIGS  =    2.980; RWIGS  =    1.577    wigner-seitz radius (au A)           
   ENMAX  =  172.069; ENMIN  =  129.052 eV                                      
   ICORE  =        3    local potential                                         
   LCOR   =        T    correct aug charges                                     
   LPAW   =        T    paw PP                                                  
   EAUG   =  380.513                                                            
   DEXC   =    0.000                                                            
   RMAX   =    2.346    core radius for proj-oper                               
   RAUG   =    1.300    factor for augmentation sphere                          
   RDEP   =    2.360    radius for radial grids                                 
   RDEPT  =    2.192    core radius for aug-charge                              
                                                                                
   Atomic configuration                                                         
   13 entries                                                                   
     n  l   j            E        occ.                                          
     1  0  0.50    -30298.2797   2.0000                                         
     2  0  0.50     -4610.2252   2.0000                                         
     2  1  1.50     -4138.3407   6.0000                                         
     3  0  0.50      -903.8815   2.0000                                         
     3  1  1.50      -750.1337   6.0000                                         
     3  2  2.50      -515.7092  10.0000                                         
     4  0  0.50      -148.8034   2.0000                                         
     4  1  1.50      -101.7581   6.0000                                         
     4  2  2.50       -33.5048  10.0000                                         
     5  0  0.50       -12.8298   2.0000                                         
     5  1  0.50        -4.8276   3.0000                                         
     5  2  1.50        -4.0817   0.0000                                         
     4  3  2.50        -4.0817   0.0000                                         
   Description                                                                  
     l       E           TYP  RCUT    TYP  RCUT                                 
     0    -12.8297861     23  2.300                                             
     0     13.6058260     23  2.300                                             
     1     -4.8275512     23  2.300                                             
     1     -0.7245443     23  2.300                                             
     2     -4.0817478     23  2.300                                             
     3     -1.3605826     23  2.300                                             
  local pseudopotential read in
  partial core-charges read in
  partial kinetic energy density read in
  atomic valenz-charges read in
  non local Contribution for L=           0  read in
    real space projection operators read in
  non local Contribution for L=           0  read in
    real space projection operators read in
  non local Contribution for L=           1  read in
    real space projection operators read in
  non local Contribution for L=           1  read in
    real space projection operators read in
  non local Contribution for L=           2  read in
    real space projection operators read in
    PAW grid and wavefunctions read in
 
   number of l-projection  operators is LMAX  =           5
   number of lm-projection operators is LMMAX =          13
 
 POTCAR:    PAW_PBE Te 08Apr2002                  
   VRHFIN =Te: s2p4                                                             
   LEXCH  = PE                                                                  
   EATOM  =   223.2721 eV,   16.4100 Ry                                         
                                                                                
   TITEL  = PAW_PBE Te 08Apr2002                                                
   LULTRA =        F    use ultrasoft PP ?                                      
   IUNSCR =        1    unscreen: 0-lin 1-nonlin 2-no                           
   RPACOR =    2.200    partial core radius                                     
   POMASS =  127.600; ZVAL   =    6.000    mass and valenz                      
   RCORE  =    2.300    outmost cutoff radius                                   
   RWIGS  =    2.900; RWIGS  =    1.535    wigner-seitz radius (au A)           
   ENMAX  =  174.982; ENMIN  =  131.236 eV                                      
   ICORE  =        3    local potential                                         
   LCOR   =        T    correct aug charges                                     
   LPAW   =        T    paw PP                                                  
   EAUG   =  368.792                                                            
   DEXC   =    0.000                                                            
   RMAX   =    2.345    core radius for proj-oper                               
   RAUG   =    1.300    factor for augmentation sphere                          
   RDEP   =    2.397    radius for radial grids                                 
   RDEPT  =    2.174    core radius for aug-charge                              
                                                                                
   Atomic configuration                                                         
   13 entries                                                                   
     n  l   j            E        occ.                                          
     1  0  0.50    -31621.2075   2.0000                                         
     2  0  0.50     -4848.7941   2.0000                                         
     2  1  1.50     -4352.1960   6.0000                                         
     3  0  0.50      -964.9612   2.0000                                         
     3  1  1.50      -803.6179   6.0000                                         
     3  2  2.50      -559.8710  10.0000                                         
     4  0  0.50      -164.3522   2.0000                                         
     4  1  1.50      -114.3756   6.0000                                         
     4  2  2.50       -41.6483  10.0000                                         
     5  0  0.50       -15.1072   2.0000                                         
     5  1  0.50        -5.9526   4.0000                                         
     5  2  1.50        -5.4423   0.0000                                         
     4  3  2.50        -5.4423   0.0000                                         
   Description                                                                  
     l       E           TYP  RCUT    TYP  RCUT                                 
     0    -15.1072389     23  2.300                                             
     0    -16.4678215     23  2.300                                             
     1     -5.9526306     23  2.300                                             
     1     -2.4873968     23  2.300                                             
     2     -5.4423304     23  2.300                                             
     3     -1.3605826     23  2.300                                             
  local pseudopotential read in
  partial core-charges read in
  partial kinetic energy density read in
  atomic valenz-charges read in
  non local Contribution for L=           0  read in
    real space projection operators read in
  non local Contribution for L=           0  read in
    real space projection operators read in
  non local Contribution for L=           1  read in
    real space projection operators read in
  non local Contribution for L=           1  read in
    real space projection operators read in
  non local Contribution for L=           2  read in
    real space projection operators read in
    PAW grid and wavefunctions read in
 
   number of l-projection  operators is LMAX  =           5
   number of lm-projection operators is LMMAX =          13
 
 Optimization of the real space projectors (new method)

 maximal supplied QI-value         = 16.25
 optimisation between [QCUT,QGAM] = [  7.96, 16.09] = [ 17.76, 72.49] Ry 
 Optimized for a Real-space Cutoff    1.70 Angstroem

   l    n(q)    QCUT    max X(q) W(low)/X(q) W(high)/X(q)  e(spline) 
   0      8     7.963    65.336    0.10E-03    0.15E-03    0.79E-07
   0      8     7.963    52.220    0.10E-03    0.15E-03    0.78E-07
   1      8     7.963    36.409    0.24E-03    0.40E-04    0.27E-06
   1      8     7.963    21.334    0.25E-03    0.31E-04    0.27E-06
   2      7     7.963     4.673    0.11E-03    0.19E-03    0.65E-07
 Optimization of the real space projectors (new method)

 maximal supplied QI-value         = 16.25
 optimisation between [QCUT,QGAM] = [  7.96, 16.09] = [ 17.76, 72.49] Ry 
 Optimized for a Real-space Cutoff    1.75 Angstroem

   l    n(q)    QCUT    max X(q) W(low)/X(q) W(high)/X(q)  e(spline) 
   0      8     7.963    19.000    0.75E-04    0.15E-03    0.82E-07
   0      8     7.963     9.057    0.89E-04    0.18E-03    0.10E-06
   1      8     7.963   125.345    0.22E-03    0.74E-04    0.27E-06
   1      8     7.963    79.963    0.21E-03    0.75E-04    0.26E-06
   2      7     7.963     6.963    0.64E-04    0.13E-03    0.56E-07
 Optimization of the real space projectors (new method)

 maximal supplied QI-value         = 16.25
 optimisation between [QCUT,QGAM] = [  7.96, 16.09] = [ 17.76, 72.49] Ry 
 Optimized for a Real-space Cutoff    1.75 Angstroem

   l    n(q)    QCUT    max X(q) W(low)/X(q) W(high)/X(q)  e(spline) 
   0      8     7.963   224.858    0.89E-04    0.20E-03    0.93E-07
   0      8     7.963   205.313    0.90E-04    0.20E-03    0.94E-07
   1      8     7.963   119.695    0.22E-03    0.72E-04    0.27E-06
   1      8     7.963    84.282    0.22E-03    0.72E-04    0.27E-06
   2      7     7.963     5.599    0.62E-04    0.12E-03    0.56E-07
  PAW_PBE Ge 05Jan2001                  :
 energy of atom  1       EATOM= -104.9960
 kinetic energy error for atom=    0.0013 (will be added to EATOM!!)
  PAW_PBE Sb 06Sep2000                  :
 energy of atom  2       EATOM= -149.9515
 kinetic energy error for atom=    0.0023 (will be added to EATOM!!)
  PAW_PBE Te 08Apr2002                  :
 energy of atom  3       EATOM= -223.2721
 kinetic energy error for atom=    0.0032 (will be added to EATOM!!)
 
 
 POSCAR: Ge Sb Te
  positions in cartesian coordinates
  No initial velocities read in
 exchange correlation table for  LEXCH =        8
   RHO(1)=    0.500       N(1)  =     2000
   RHO(2)=  100.500       N(2)  =     4000
 


--------------------------------------------------------------------------------------------------------


 ion  position               nearest neighbor table
   1  0.065  0.763  0.471-  72 2.71  40 2.74  55 3.06
   2  0.211  0.612  0.266-  46 2.72  55 2.82  40 2.96  39 3.02  35 3.16
   3  0.283  0.402  0.491-  70 2.83  39 2.90  55 2.94  54 3.02  59 3.16  68 3.16
   4  0.590  0.827  0.750-  58 2.80  67 2.83  57 2.96  37 2.96  66 3.20
   5  0.479  0.966  0.020-  51 2.77  38 2.94  58 2.99  37 3.12
   6  0.675  0.589  0.014-  50 2.79  37 2.86  62 2.93  36 3.22  42 3.29
   7  0.400  0.692  0.966-  66 2.84  51 2.91  37 2.93  46 3.29
   8  0.296  0.904  0.251-  43 2.79  38 2.88  71 3.12  51 3.18  40 3.22  46 3.26
   9  0.488  0.524  0.791-  66 2.57  62 2.87  50 2.88  59 3.22
  10  0.684  0.115  0.240-  69 2.75  45 2.84  41 2.89  49 3.11
  11  0.596  0.303  0.980-  65 2.80  50 2.83  36 3.03
  12  0.020  0.520  0.482-  72 2.70  55 2.96  44 3.12  64 3.17
  13  0.223  0.065  0.010-  34 2.72  43 2.75  51 2.87  63 3.30
  14  0.986  0.994  0.718-  53 2.95  33 2.96  61 3.01  63 3.09  67 3.21
  15  0.089  0.753  0.974-  60 2.73  52 2.85  35 2.86
  16  0.002  0.503  0.988-  35 2.76  52 2.86  48 2.97  44 3.00  64 3.07
  17  0.210  0.606  0.769-  60 2.90  66 3.04  35 3.05  59 3.16  55 3.35  64 3.40
  18  0.902  0.696  0.236-  47 2.95  40 3.03  52 3.06  72 3.15  44 3.39  42 3.49
  19  0.786  0.416  0.745-  62 2.90  56 2.93  36 3.09  64 3.12  65 3.38  61 3.50
  20  0.916  0.197  0.974-  48 2.84  41 3.04  61 3.06  33 3.08  36 3.21  49 3.56
  21  0.584  0.301  0.496-  45 2.93  70 2.97  56 3.02  65 3.15  69 3.25  54 3.36
  22  0.462  0.983  0.522-  71 2.76  57 2.84  58 3.22  38 3.26  54 3.35  69 3.62
  23  0.613  0.801  0.274-  47 2.86  57 2.92  42 3.00  38 3.32  46 3.53  37 3.58
  24  0.821  0.899  0.983-  33 2.86  67 3.08  49 3.17  52 3.23  47 3.59  37 3.66
  25  0.093  0.307  0.745-  68 2.98  48 3.12  63 3.14  59 3.15  64 3.18  61 3.18
  26  0.166  0.090  0.502-  68 2.98  53 3.01  63 3.02  71 3.10  54 3.22  43 3.37
  27  0.369  0.208  0.256-  34 2.97  39 3.05  54 3.23  45 3.25  38 3.29  43 3.31
  28  0.896  0.185  0.473-  53 3.01  68 3.07  61 3.10  41 3.14  69 3.15  56 3.44
  29  0.474  0.516  0.283-  46 2.76  70 2.90  42 3.04  39 3.17  50 3.27  45 3.49
  30  0.829  0.392  0.229-  36 2.90  44 2.90  41 2.96  56 3.49  42 3.60  45 3.69
  31  0.382  0.217  0.767-  59 2.79  65 2.97  54 3.04  34 3.08  63 3.28  58 3.38
  32  0.696  0.081  0.737-  67 2.87  58 3.04  49 3.08  61 3.21  65 3.27  69 3.37
  33  0.001  0.993  0.959-  24 2.86  14 2.96  20 3.08
  34  0.378  0.183  0.016-  13 2.72  27 2.97  31 3.08
  35  0.185  0.575  0.014-  16 2.76  15 2.86  17 3.05   2 3.16
  36  0.793  0.391  0.996-  30 2.90  11 3.03  19 3.09  20 3.21   6 3.22
  37  0.591  0.775  0.984-   6 2.86   7 2.93   4 2.96   5 3.12  23 3.58  24 3.66
  38  0.479  0.998  0.257-   8 2.88   5 2.94  22 3.26  27 3.29  23 3.32
  39  0.277  0.406  0.254-   3 2.90   2 3.02  27 3.05  29 3.17
  40  0.096  0.791  0.253-   1 2.74   2 2.96  18 3.03   8 3.22
  41  0.878  0.185  0.218-  10 2.89  30 2.96  20 3.04  28 3.14
  42  0.677  0.595  0.282-  23 3.00  29 3.04   6 3.29  18 3.49  30 3.60
  43  0.180  0.067  0.229-  13 2.75   8 2.79  27 3.31  26 3.37
  44  0.016  0.481  0.231-  30 2.90  16 3.00  12 3.12  18 3.39
  45  0.586  0.292  0.258-  10 2.84  21 2.93  27 3.25  29 3.49  30 3.69
  46  0.388  0.689  0.234-   2 2.72  29 2.76   8 3.26   7 3.29  23 3.53
  47  0.802  0.879  0.274-  23 2.86  18 2.95  24 3.59
  48  0.085  0.306  1.000-  20 2.84  16 2.97  25 3.12
  49  0.688  0.084  0.989-  32 3.08  10 3.11  24 3.17  20 3.56
  50  0.507  0.483  0.021-   6 2.79  11 2.83   9 2.88  29 3.27
  51  0.304  0.875  0.994-   5 2.77  13 2.87   7 2.91   8 3.18
  52  0.899  0.681  0.988-  15 2.85  16 2.86  18 3.06  24 3.23
  53  0.979  0.985  0.478-  14 2.95  26 3.01  28 3.01
  54  0.366  0.203  0.519-   3 3.02  31 3.04  26 3.22  27 3.23  22 3.35  21 3.36
  55  0.214  0.602  0.496-   2 2.82   3 2.94  12 2.96   1 3.06  17 3.35
  56  0.777  0.399  0.507-  19 2.93  21 3.02  28 3.44  30 3.49
  57  0.592  0.826  0.509-  22 2.84  23 2.92   4 2.96
  58  0.496  0.003  0.781-   4 2.80   5 2.99  32 3.04  22 3.22  31 3.38
  59  0.299  0.398  0.748-  31 2.79  25 3.15  17 3.16   3 3.16   9 3.22
  60  0.102  0.783  0.754-  15 2.73  17 2.90
  61  0.897  0.191  0.726-  14 3.01  20 3.06  28 3.10  25 3.18  32 3.21  19 3.50
  62  0.681  0.594  0.775-   9 2.87  19 2.90   6 2.93
  63  0.180  0.098  0.748-  26 3.02  14 3.09  25 3.14  31 3.28  13 3.30
  64  0.988  0.509  0.738-  16 3.07  19 3.12  12 3.17  25 3.18  17 3.40
  65  0.582  0.286  0.753-  11 2.80  31 2.97  21 3.15  32 3.27  19 3.38
  66  0.411  0.685  0.735-   9 2.57   7 2.84  17 3.04   4 3.20
  67  0.781  0.893  0.736-   4 2.83  32 2.87  24 3.08  14 3.21
  68  0.087  0.289  0.503-  25 2.98  26 2.98  28 3.07   3 3.16
  69  0.689  0.095  0.463-  10 2.75  28 3.15  21 3.25  32 3.37  22 3.62
  70  0.468  0.480  0.515-   3 2.83  29 2.90  21 2.97
  71  0.283  0.901  0.506-  22 2.76  26 3.10   8 3.12
  72  0.896  0.670  0.491-  12 2.70   1 2.71  18 3.15
 
  LATTYP: Found a triclinic cell.
 ALAT       =    23.2298548863
 B/A-ratio  =     0.6002442031
 C/A-ratio  =     0.5274604292
 COS(alpha) =     0.0002914880
 COS(beta)  =     0.5314393380
 COS(gamma) =     0.5975776814
  
  Lattice vectors:
  
 A1 = (  13.9632122908, -13.9473680330, -12.2525828100)
 A2 = (  -0.0654792562, -13.9434319870,   0.0000000000)
 A3 = (   0.0776084776,  -0.0039360460, -12.2525828100)


Analysis of symmetry for initial positions (statically):
=====================================================================
 Subroutine PRICEL returns:
 Original cell was already a primitive cell.
 

 Routine SETGRP: Setting up the symmetry group for a 
 triclinic supercell.


 Subroutine GETGRP returns: Found  1 space group operations
 (whereof  1 operations were pure point group operations)
 out of a pool of  2 trial point group operations.


The static configuration has the point symmetry C_1 .


Analysis of symmetry for dynamics (positions and initial velocities):
=====================================================================
 Subroutine PRICEL returns:
 Original cell was already a primitive cell.
 

 Routine SETGRP: Setting up the symmetry group for a 
 triclinic supercell.


 Subroutine GETGRP returns: Found  1 space group operations
 (whereof  1 operations were pure point group operations)
 out of a pool of  2 trial point group operations.


The dynamic configuration has the point symmetry C_1 .


 Subroutine INISYM returns: Found  1 space group operations
 (whereof  1 operations are pure point group operations),
 and found     1 'primitive' translations


----------------------------------------------------------------------------------------

                                     Primitive cell                                     

  volume of cell :    2383.4457

  direct lattice vectors                    reciprocal lattice vectors
    13.951083069  0.000000000  0.000000000     0.071679023 -0.000336609  0.000454127
     0.065479256 13.943431987  0.000000000     0.000000000  0.071718355 -0.000023039
    -0.077608478  0.003936046 12.252582810     0.000000000  0.000000000  0.081615445

  length of vectors
    13.951083069 13.943585734 12.252829228     0.071681252  0.071718358  0.081615445

  position of ions in fractional coordinates (direct lattice)
     0.065025675  0.762512804  0.471177391
     0.211391874  0.612360184  0.266111240
     0.282737817  0.402143366  0.490678585
     0.589753851  0.827095233  0.750466260
     0.478614210  0.965782321  0.020298169
     0.675348706  0.588892708  0.013866546
     0.399588280  0.691528405  0.965616816
     0.296346827  0.904204305  0.251207443
     0.488294026  0.524193454  0.791206242
     0.684452558  0.114927708  0.239662938
     0.595610140  0.303426966  0.979850550
     0.019503791  0.520190017  0.481669873
     0.223374835  0.064940989  0.010348920
     0.986177988  0.994157871  0.718320385
     0.088650110  0.753011651  0.973884461
     0.001897860  0.502531367  0.987808055
     0.210262515  0.605957080  0.769470417
     0.901570019  0.695804298  0.236301198
     0.786034413  0.415568163  0.745311429
     0.915961437  0.196599692  0.974472092
     0.584376080  0.301048323  0.496230068
     0.462150343  0.982516096  0.521750401
     0.612617214  0.800686780  0.273965094
     0.821313359  0.898977496  0.982821352
     0.092863660  0.306678232  0.745146566
     0.165819390  0.089995306  0.502173305
     0.369178714  0.207608278  0.256118245
     0.895882496  0.184549107  0.473083112
     0.474442418  0.515841233  0.282733041
     0.828639390  0.391577871  0.228804820
     0.381582014  0.216598151  0.766862803
     0.696004820  0.080515209  0.737202118
     0.001313704  0.993085839  0.959120227
     0.378422367  0.182949117  0.015607158
     0.184867203  0.574653784  0.013730574
     0.793262978  0.390918884  0.995700269
     0.591174138  0.774631789  0.984323076
     0.479371908  0.998328045  0.257160474
     0.277049300  0.406296728  0.253861577
     0.095900182  0.790551864  0.252500232
     0.877614280  0.185280984  0.217782654
     0.676922128  0.595494736  0.281920151
     0.180202458  0.066883915  0.228827672
     0.016147503  0.480970583  0.231041083
     0.585651505  0.292462862  0.257614256
     0.388186864  0.689127287  0.233875587
     0.801619873  0.879419237  0.273799415
     0.085469196  0.306210881  0.999849407
     0.688341817  0.083659383  0.988575241
     0.506815943  0.482601934  0.021025281
     0.303584638  0.875400472  0.994157737
     0.898781651  0.680590186  0.987546886
     0.979184297  0.985052987  0.477808646
     0.365852942  0.203092428  0.519442317
     0.214469939  0.602140608  0.496281486
     0.776739204  0.398841070  0.507276718
     0.592333036  0.826044541  0.509173461
     0.496471375  0.003007635  0.780846794
     0.298898968  0.398168586  0.747806413
     0.102166986  0.783274315  0.754019797
     0.897300784  0.191031399  0.725775956
     0.681219142  0.593994359  0.774904373
     0.179616562  0.098183478  0.748301819
     0.988210323  0.509356387  0.737762000
     0.582039110  0.285720754  0.752556432
     0.410810409  0.684616114  0.734691627
     0.781010869  0.892692995  0.735749363
     0.087074046  0.289311876  0.502924167
     0.689281626  0.094917609  0.463098278
     0.468433973  0.479629512  0.515369706
     0.282923147  0.900876502  0.505525251
     0.895707345  0.669669836  0.491403330

  ion indices of the primitive-cell ions
   primitive index   ion index
                 1           1
                 2           2
                 3           3
                 4           4
                 5           5
                 6           6
                 7           7
                 8           8
                 9           9
                10          10
                11          11
                12          12
                13          13
                14          14
                15          15
                16          16
                17          17
                18          18
                19          19
                20          20
                21          21
                22          22
                23          23
                24          24
                25          25
                26          26
                27          27
                28          28
                29          29
                30          30
                31          31
                32          32
                33          33
                34          34
                35          35
                36          36
                37          37
                38          38
                39          39
                40          40
                41          41
                42          42
                43          43
                44          44
                45          45
                46          46
                47          47
                48          48
                49          49
                50          50
                51          51
                52          52
                53          53
                54          54
                55          55
                56          56
                57          57
                58          58
                59          59
                60          60
                61          61
                62          62
                63          63
                64          64
                65          65
                66          66
                67          67
                68          68
                69          69
                70          70
                71          71
                72          72

----------------------------------------------------------------------------------------

 
 

Automatic generation of k-mesh.
 generate k-points for:    2    2    2
Space group operators:
 irot       det(A)        alpha          n_x          n_y          n_z        tau_x        tau_y        tau_z
    1     1.000000     0.000000     1.000000     0.000000     0.000000     0.000000     0.000000     0.000000
 
 Subroutine IBZKPT returns following result:
 ===========================================
 
 Found      4 irreducible k-points:
 
 Following reciprocal coordinates:
            Coordinates               Weight
  0.250000  0.250000  0.250000      2.000000
 -0.250000  0.250000  0.250000      2.000000
  0.250000 -0.250000  0.250000      2.000000
 -0.250000 -0.250000  0.250000      2.000000
 
 Following cartesian coordinates:
            Coordinates               Weight
  0.017920  0.017845  0.020512      2.000000
 -0.017920  0.018014  0.020285      2.000000
  0.017920 -0.018014  0.020523      2.000000
 -0.017920 -0.017845  0.020296      2.000000
 


--------------------------------------------------------------------------------------------------------




 Dimension of arrays:
   k-points           NKPTS =      4   k-points in BZ     NKDIM =      4   number of bands    NBANDS=    232
   number of dos      NEDOS =    301   number of ions     NIONS =     72
   non local maximal  LDIM  =      5   non local SUM 2l+1 LMDIM =     13
   total plane-waves  NPLWV = 331776
   max r-space proj   IRMAX =   3154   max aug-charges    IRDMAX=   8295
   dimension x,y,z NGX =    72 NGY =   72 NGZ =   64
   dimension x,y,z NGXF=   144 NGYF=  144 NGZF=  128
   support grid    NGXF=   144 NGYF=  144 NGZF=  128
   ions per type =              16  16  40
   NGX,Y,Z   is equivalent  to a cutoff of   8.58,  8.58,  8.68 a.u.
   NGXF,Y,Z  is equivalent  to a cutoff of  17.16, 17.17, 17.37 a.u.

 SYSTEM =  unknown system                          
 POSCAR =  Ge Sb Te                                

 Startparameter for this run:
   NWRITE =      2    write-flag & timer
   PREC   = accura    normal or accurate (medium, high low for compatibility)
   ISTART =      0    job   : 0-new  1-cont  2-samecut
   ICHARG =      2    charge: 1-file 2-atom 10-const
   ISPIN  =      1    spin polarized calculation?
   LNONCOLLINEAR =      F non collinear calculations
   LSORBIT =      F    spin-orbit coupling
   INIWAV =      1    electr: 0-lowe 1-rand  2-diag
   LASPH  =      F    aspherical Exc in radial PAW
   METAGGA=      F    non-selfconsistent MetaGGA calc.

 Electronic Relaxation 1
   ENCUT  =  250.0 eV  18.37 Ry    4.29 a.u.  17.99 17.98 15.80*2*pi/ulx,y,z
   ENINI  =  250.0     initial cutoff
   ENAUG  =  385.8 eV  augmentation charge cutoff
   NELM   =     60;   NELMIN=  2; NELMDL= -5     # of ELM steps 
   EDIFF  = 0.1E-05   stopping-criterion for ELM
   LREAL  =      T    real-space projection
   NLSPLINE    = F    spline interpolate recip. space projectors
   LCOMPAT=      F    compatible to vasp.4.4
   GGA_COMPAT  = T    GGA compatible to vasp.4.4-vasp.4.6
   LMAXPAW     = -100 max onsite density
   LMAXMIX     =    2 max onsite mixed and CHGCAR
   VOSKOWN=      0    Vosko Wilk Nusair interpolation
   ROPT   =   -0.00025  -0.00025  -0.00025
 Ionic relaxation
   EDIFFG = 0.1E-04   stopping-criterion for IOM
   NSW    =      0    number of steps for IOM
   NBLOCK =      1;   KBLOCK =      1    inner block; outer block 
   IBRION =     -1    ionic relax: 0-MD 1-quasi-New 2-CG
   NFREE  =      0    steps in history (QN), initial steepest desc. (CG)
   ISIF   =      2    stress and relaxation
   IWAVPR =     10    prediction:  0-non 1-charg 2-wave 3-comb
   ISYM   =      2    0-nonsym 1-usesym 2-fastsym
   LCORR  =      T    Harris-Foulkes like correction to forces

   POTIM  = 0.5000    time-step for ionic-motion
   TEIN   =    0.0    initial temperature
   TEBEG  =    0.0;   TEEND  =   0.0 temperature during run
   SMASS  =  -3.00    Nose mass-parameter (am)
   estimated Nose-frequenzy (Omega)   =  0.10E-29 period in steps = 0.13E+47 mass=  -0.445E-26a.u.
   SCALEE = 1.0000    scale energy and forces
   NPACO  =    256;   APACO  = 16.0  distance and # of slots for P.C.
   PSTRESS=    0.0 pullay stress

  Mass of Ions in am
   POMASS =  72.61121.75127.60
  Ionic Valenz
   ZVAL   =   4.00  5.00  6.00
  Atomic Wigner-Seitz radii
   RWIGS  =  -1.00 -1.00 -1.00
  virtual crystal weights 
   VCA    =   1.00  1.00  1.00
   NELECT =     384.0000    total number of electrons
   NUPDOWN=      -1.0000    fix difference up-down

 DOS related values:
   EMIN   =  10.00;   EMAX   =-10.00  energy-range for DOS
   EFERMI =   0.00
   ISMEAR =     0;   SIGMA  =   0.05  broadening in eV -4-tet -1-fermi 0-gaus

 Electronic relaxation 2 (details)
   IALGO  =     68    algorithm
   LDIAG  =      T    sub-space diagonalisation (order eigenvalues)
   LSUBROT=      F    optimize rotation matrix (better conditioning)
   TURBO    =      0    0=normal 1=particle mesh
   IRESTART =      0    0=no restart 2=restart with 2 vectors
   NREBOOT  =      0    no. of reboots
   NMIN     =      0    reboot dimension
   EREF     =   0.00    reference energy to select bands
   IMIX   =      4    mixing-type and parameters
     AMIX     =   0.40;   BMIX     =  1.00
     AMIX_MAG =   1.60;   BMIX_MAG =  1.00
     AMIN     =   0.10
     WC   =   100.;   INIMIX=   1;  MIXPRE=   1;  MAXMIX= -45

 Intra band minimization:
   WEIMIN = 0.0000     energy-eigenvalue tresh-hold
   EBREAK =  0.11E-08  absolut break condition
   DEPER  =   0.30     relativ break condition  

   TIME   =   0.40     timestep for ELM

  volume/ion in A,a.u.               =      33.10       223.39
  Fermi-wavevector in a.u.,A,eV,Ry     =   0.890807  1.683381 10.796721  0.793537
  Thomas-Fermi vector in A             =   2.012545
 
 Write flags
   LWAVE        =      F    write WAVECAR
   LDOWNSAMPLE  =      F    k-point downsampling of WAVECAR
   LCHARG       =      F    write CHGCAR
   LVTOT        =      F    write LOCPOT, total local potential
   LVHAR        =      F    write LOCPOT, Hartree potential only
   LELF         =      F    write electronic localiz. function (ELF)
   LORBIT       =      0    0 simple, 1 ext, 2 COOP (PROOUT), +10 PAW based schemes


 Dipole corrections
   LMONO  =      F    monopole corrections only (constant potential shift)
   LDIPOL =      F    correct potential (dipole corrections)
   IDIPOL =      0    1-x, 2-y, 3-z, 4-all directions 
   EPSILON=  1.0000000 bulk dielectric constant

 Exchange correlation treatment:
   GGA     =    --    GGA type
   LEXCH   =     8    internal setting for exchange type
   VOSKOWN=      0    Vosko Wilk Nusair interpolation
   LHFCALC =     F    Hartree Fock is set to
   LHFONE  =     F    Hartree Fock one center treatment
   AEXX    =    0.0000 exact exchange contribution

 Linear response parameters
   LEPSILON=     F    determine dielectric tensor
   LRPA    =     F    only Hartree local field effects (RPA)
   LNABLA  =     F    use nabla operator in PAW spheres
   LVEL    =     F    velocity operator in full k-point grid
   LINTERFAST=   F  fast interpolation
   KINTER  =     0    interpolate to denser k-point grid
   CSHIFT  =0.1000    complex shift for real part using Kramers Kronig
   OMEGAMAX=  -1.0    maximum frequency
   DEG_THRESHOLD= 0.2000000E-02 threshold for treating states as degnerate
   RTIME   =   -0.100 relaxation time in fs
  (WPLASMAI=    0.000 imaginary part of plasma frequency in eV, 0.658/RTIME)
   DFIELD  = 0.0000000 0.0000000 0.0000000 field for delta impulse in time
 
 Orbital magnetization related:
   ORBITALMAG=     F  switch on orbital magnetization
   LCHIMAG   =     F  perturbation theory with respect to B field
   DQ        =  0.001000  dq finite difference perturbation B field
   LLRAUG    =     F  two centre corrections for induced B field



--------------------------------------------------------------------------------------------------------


 Static calculation
 charge density and potential will be updated during run
 non-spin polarized calculation
 RMM-DIIS sequential band-by-band and
  variant of blocked Davidson during initial phase
 perform sub-space diagonalisation
    before iterative eigenvector-optimisation
 modified Broyden-mixing scheme, WC =      100.0
 initial mixing is a Kerker type mixing with AMIX =  0.4000 and BMIX =      1.0000
 Hartree-type preconditioning will be used
 using additional bands           40
 real space projection scheme for non local part
 use partial core corrections
 calculate Harris-corrections to forces 
   (improved forces if not selfconsistent)
 use gradient corrections 
 use of overlap-Matrix (Vanderbilt PP)
 Gauss-broadening in eV      SIGMA  =   0.05


--------------------------------------------------------------------------------------------------------


  energy-cutoff  :      250.00
  volume of cell :     2383.45
      direct lattice vectors                 reciprocal lattice vectors
    13.951083069  0.000000000  0.000000000     0.071679023 -0.000336609  0.000454127
     0.065479256 13.943431987  0.000000000     0.000000000  0.071718355 -0.000023039
    -0.077608478  0.003936046 12.252582810     0.000000000  0.000000000  0.081615445

  length of vectors
    13.951083069 13.943585734 12.252829228     0.071681252  0.071718358  0.081615445


 
 k-points in units of 2pi/SCALE and weight: read from INCAR                         
   0.01791976  0.01784544  0.02051163       0.250
  -0.01791976  0.01801374  0.02028457       0.250
   0.01791976 -0.01801374  0.02052315       0.250
  -0.01791976 -0.01784544  0.02029609       0.250
 
 k-points in reciprocal lattice and weights: read from INCAR                         
   0.25000000  0.25000000  0.25000000       0.250
  -0.25000000  0.25000000  0.25000000       0.250
   0.25000000 -0.25000000  0.25000000       0.250
  -0.25000000 -0.25000000  0.25000000       0.250
 
 position of ions in fractional coordinates (direct lattice) 
   0.06502567  0.76251280  0.47117739
   0.21139187  0.61236018  0.26611124
   0.28273782  0.40214337  0.49067859
   0.58975385  0.82709523  0.75046626
   0.47861421  0.96578232  0.02029817
   0.67534871  0.58889271  0.01386655
   0.39958828  0.69152841  0.96561682
   0.29634683  0.90420431  0.25120744
   0.48829403  0.52419345  0.79120624
   0.68445256  0.11492771  0.23966294
   0.59561014  0.30342697  0.97985055
   0.01950379  0.52019002  0.48166987
   0.22337483  0.06494099  0.01034892
   0.98617799  0.99415787  0.71832038
   0.08865011  0.75301165  0.97388446
   0.00189786  0.50253137  0.98780806
   0.21026251  0.60595708  0.76947042
   0.90157002  0.69580430  0.23630120
   0.78603441  0.41556816  0.74531143
   0.91596144  0.19659969  0.97447209
   0.58437608  0.30104832  0.49623007
   0.46215034  0.98251610  0.52175040
   0.61261721  0.80068678  0.27396509
   0.82131336  0.89897750  0.98282135
   0.09286366  0.30667823  0.74514657
   0.16581939  0.08999531  0.50217330
   0.36917871  0.20760828  0.25611824
   0.89588250  0.18454911  0.47308311
   0.47444242  0.51584123  0.28273304
   0.82863939  0.39157787  0.22880482
   0.38158201  0.21659815  0.76686280
   0.69600482  0.08051521  0.73720212
   0.00131370  0.99308584  0.95912023
   0.37842237  0.18294912  0.01560716
   0.18486720  0.57465378  0.01373057
   0.79326298  0.39091888  0.99570027
   0.59117414  0.77463179  0.98432308
   0.47937191  0.99832804  0.25716047
   0.27704930  0.40629673  0.25386158
   0.09590018  0.79055186  0.25250023
   0.87761428  0.18528098  0.21778265
   0.67692213  0.59549474  0.28192015
   0.18020246  0.06688392  0.22882767
   0.01614750  0.48097058  0.23104108
   0.58565151  0.29246286  0.25761426
   0.38818686  0.68912729  0.23387559
   0.80161987  0.87941924  0.27379941
   0.08546920  0.30621088  0.99984941
   0.68834182  0.08365938  0.98857524
   0.50681594  0.48260193  0.02102528
   0.30358464  0.87540047  0.99415774
   0.89878165  0.68059019  0.98754689
   0.97918430  0.98505299  0.47780865
   0.36585294  0.20309243  0.51944232
   0.21446994  0.60214061  0.49628149
   0.77673920  0.39884107  0.50727672
   0.59233304  0.82604454  0.50917346
   0.49647137  0.00300763  0.78084679
   0.29889897  0.39816859  0.74780641
   0.10216699  0.78327432  0.75401980
   0.89730078  0.19103140  0.72577596
   0.68121914  0.59399436  0.77490437
   0.17961656  0.09818348  0.74830182
   0.98821032  0.50935639  0.73776200
   0.58203911  0.28572075  0.75255643
   0.41081041  0.68461611  0.73469163
   0.78101087  0.89269299  0.73574936
   0.08707405  0.28931188  0.50292417
   0.68928163  0.09491761  0.46309828
   0.46843397  0.47962951  0.51536971
   0.28292315  0.90087650  0.50552525
   0.89570735  0.66966984  0.49140333
 
 position of ions in cartesian coordinates  (Angst):
   0.92054000 10.63390000  5.77314000
   2.96859000  8.53945000  3.26055000
   3.93275000  5.60919000  6.01208000
   8.22362000 11.53550000  9.19515000
   6.73885000 13.46640000  0.24870500
   9.45933000  8.21124000  0.16990100
   5.54503000  9.64608000 11.83130000
   4.17407000 12.60870000  3.07794000
   6.78515000  7.31217000  9.69432000
   9.53778000  1.60343000  2.93649000
   8.25323000  4.23467000 12.00570000
   0.26877900  7.25513000  5.90170000
   3.11977000  0.90554100  0.12680100
  13.76760000 13.86480000  8.80128000
   1.21049000 10.50340000 11.93260000
  -0.01727970  7.01090000 12.10320000
   2.91335000  8.45215000  9.42800000
  12.60510000  9.70283000  2.89530000
  10.93540000  5.79738000  9.13199000
  12.71590000  2.74511000 11.93980000
   8.13388000  4.19960000  6.08010000
   6.47134000 13.70170000  6.39279000
   8.57784000 11.16540000  3.35678000
  11.44080000 12.53870000 12.04210000
   1.25780000  4.27908000  9.12997000
   2.28028000  1.25682000  6.15292000
   5.14416000  2.89578000  3.13811000
  12.47390000  2.57511000  5.79649000
   6.63082000  7.19371000  3.46421000
  11.56830000  5.46084000  2.80345000
   5.27815000  3.02314000  9.39605000
   9.65808000  1.12556000  9.03263000
   0.00891825 13.85080000 11.75170000
   5.29017000  2.55100000  0.19122800
   2.61566000  8.01270000  0.16823500
  11.01520000  5.45467000 12.19990000
   8.22185000 10.80490000 12.06050000
   6.73316926 13.92113139  3.15088000
   3.87204000  5.66617000  3.11046000
   1.37008000 11.02400000  3.09378000
  12.23890000  2.58431000  2.66840000
   9.46091000  8.30435000  3.45425000
   2.50064000  0.93349200  2.80373000
   0.23883800  6.70729000  2.83085000
   8.16963000  4.07895000  3.15644000
   5.44260000  9.60972000  2.86558000
  11.21980000 12.26320000  3.35475000
   1.13484152  4.27356605 12.25073766
   9.53187000  1.17039000 12.11260000
   7.10060000  6.72921000  0.25761400
   4.21550000 12.21000000 12.18100000
  12.50690000  9.49365000 12.10000000
  13.68810000 13.73690000  5.85439000
   5.07703000  2.83385000  6.36451000
   2.99300000  8.39786000  6.08073000
  10.82310000  5.56321000  6.21545000
   8.27826000 11.51990000  6.23869000
   6.86591000  0.04501020  9.56739000
   4.13800000  5.55478000  9.16256000
   1.41811000 10.92450000  9.23869000
  12.47450000  2.66649000  8.89263000
   9.48250000  8.28537000  9.49458000
   2.45420000  1.37196000  9.16863000
  13.76270000  7.10508000  9.03949000
   8.08038000  3.98689000  9.22076000
   5.71906000  9.54879000  9.00187000
  10.89730000 12.45010000  9.01483000
   1.19469000  4.03598000  6.16212000
   9.58650000  1.32530000  5.67415000
   6.52657000  6.68971000  6.31461000
   3.96684000 12.56330000  6.19399000
  12.50180000  9.33943000  6.02096000
 


--------------------------------------------------------------------------------------------------------


 k-point  1 :   0.2500 0.2500 0.2500  plane waves:   21379
 k-point  2 :  -0.2500 0.2500 0.2500  plane waves:   21394
 k-point  3 :   0.2500-0.2500 0.2500  plane waves:   21392
 k-point  4 :  -0.2500-0.2500 0.2500  plane waves:   21381

 maximum and minimum number of plane-waves per node :      5363     5332

 maximum number of plane-waves:     21394
 maximum index in each direction: 
   IXMAX=   18   IYMAX=   18   IZMAX=   15
   IXMIN=  -18   IYMIN=  -18   IZMIN=  -16


 real space projection operators:
  total allocation   :      21611.28 KBytes
  max/ min on nodes  :       5405.36       5400.99


 parallel 3D FFT for wavefunctions:
    minimum data exchange during FFTs selected (reduces bandwidth)
 parallel 3D FFT for charge:
    minimum data exchange during FFTs selected (reduces bandwidth)


 total amount of memory used by VASP MPI-rank0    78616. kBytes
=======================================================================

   base      :      30000. kBytes
   nonlr-proj:       5496. kBytes
   fftplans  :       8138. kBytes
   grid      :      14079. kBytes
   one-center:        146. kBytes
   wavefun   :      20757. kBytes
 
     INWAV:  cpu time    0.0002: real time    0.0001
 Broyden mixing: mesh for mixing (old mesh)
   NGX = 35   NGY = 35   NGZ = 31
  (NGX  =144   NGY  =144   NGZ  =128)
  gives a total of  37975 points

 initial charge density was supplied:
 charge density of overlapping atoms calculated
 number of electron     384.0000000 magnetization 
 keeping initial charge density in first step


--------------------------------------------------------------------------------------------------------


 Maximum index for non-local projection operator          765
 Maximum index for augmentation-charges          551 (set IRDMAX)


--------------------------------------------------------------------------------------------------------


 First call to EWALD:  gamma=   0.133
 Maximum number of real-space cells 3x 3x 3
 Maximum number of reciprocal cells 3x 3x 3

    FEWALD:  cpu time    0.0104: real time    0.0105


--------------------------------------- Iteration      1(   1)  ---------------------------------------


    POTLOK:  cpu time    0.1635: real time    0.1802
    SETDIJ:  cpu time    0.0333: real time    0.0340
     EDDAV:  cpu time    3.0674: real time    3.0732
       DOS:  cpu time    0.0029: real time    0.0036
    --------------------------------------------
      LOOP:  cpu time    3.2672: real time    3.2911

 eigenvalue-minimisations  :  1856
 total energy-change (2. order) : 0.1326160E+04  (-0.8891970E+04)
 number of electron     384.0000000 magnetization 
 augmentation part      384.0000000 magnetization 

 Free energy of the ion-electron system (eV)
  ---------------------------------------------------
  alpha Z        PSCENC =       120.34367251
  Ewald energy   TEWEN  =    -12762.63818932
  -Hartree energ DENC   =     -1123.64163542
  -exchange      EXHF   =         0.00000000
  -V(xc)+E(xc)   XCENC  =     -1985.28392406
  PAW double counting   =     12338.96171541    -9704.48084717
  entropy T*S    EENTRO =        -0.03162855
  eigenvalues    EBANDS =      1433.07303168
  atomic energy  EATOM  =     13009.85829969
  Solvation  Ediel_sol  =         0.00000000
  ---------------------------------------------------
  free energy    TOTEN  =      1326.16049478 eV

  energy without entropy =     1326.19212333  energy(sigma->0) =     1326.17630906


--------------------------------------------------------------------------------------------------------




--------------------------------------- Iteration      1(   2)  ---------------------------------------


     EDDAV:  cpu time    3.4608: real time    3.4939
       DOS:  cpu time    0.0017: real time    0.0017
    --------------------------------------------
      LOOP:  cpu time    3.4625: real time    3.4956

 eigenvalue-minimisations  :  2192
 total energy-change (2. order) :-0.1444850E+04  (-0.1394021E+04)
 number of electron     384.0000000 magnetization 
 augmentation part      384.0000000 magnetization 

 Free energy of the ion-electron system (eV)
  ---------------------------------------------------
  alpha Z        PSCENC =       120.34367251
  Ewald energy   TEWEN  =    -12762.63818932
  -Hartree energ DENC   =     -1123.64163542
  -exchange      EXHF   =         0.00000000
  -V(xc)+E(xc)   XCENC  =     -1985.28392406
  PAW double counting   =     12338.96171541    -9704.48084717
  entropy T*S    EENTRO =        -0.00395633
  eigenvalues    EBANDS =       -11.80441684
  atomic energy  EATOM  =     13009.85829969
  Solvation  Ediel_sol  =         0.00000000
  ---------------------------------------------------
  free energy    TOTEN  =      -118.68928151 eV

  energy without entropy =     -118.68532519  energy(sigma->0) =     -118.68730335


--------------------------------------------------------------------------------------------------------




--------------------------------------- Iteration      1(   3)  ---------------------------------------


     EDDAV:  cpu time    3.4739: real time    3.5053
       DOS:  cpu time    0.0013: real time    0.0013
    --------------------------------------------
      LOOP:  cpu time    3.4753: real time    3.5067

 eigenvalue-minimisations  :  2200
 total energy-change (2. order) :-0.1429767E+03  (-0.1391668E+03)
 number of electron     384.0000000 magnetization 
 augmentation part      384.0000000 magnetization 

 Free energy of the ion-electron system (eV)
  ---------------------------------------------------
  alpha Z        PSCENC =       120.34367251
  Ewald energy   TEWEN  =    -12762.63818932
  -Hartree energ DENC   =     -1123.64163542
  -exchange      EXHF   =         0.00000000
  -V(xc)+E(xc)   XCENC  =     -1985.28392406
  PAW double counting   =     12338.96171541    -9704.48084717
  entropy T*S    EENTRO =        -0.00000000
  eigenvalues    EBANDS =      -154.78505398
  atomic energy  EATOM  =     13009.85829969
  Solvation  Ediel_sol  =         0.00000000
  ---------------------------------------------------
  free energy    TOTEN  =      -261.66596233 eV

  energy without entropy =     -261.66596233  energy(sigma->0) =     -261.66596233


--------------------------------------------------------------------------------------------------------




--------------------------------------- Iteration      1(   4)  ---------------------------------------


     EDDAV:  cpu time    3.8883: real time    3.9212
       DOS:  cpu time    0.0012: real time    0.0012
    --------------------------------------------
      LOOP:  cpu time    3.8895: real time    3.9224

 eigenvalue-minimisations  :  2520
 total energy-change (2. order) :-0.6376501E+01  (-0.6312966E+01)
 number of electron     384.0000000 magnetization 
 augmentation part      384.0000000 magnetization 

 Free energy of the ion-electron system (eV)
  ---------------------------------------------------
  alpha Z        PSCENC =       120.34367251
  Ewald energy   TEWEN  =    -12762.63818932
  -Hartree energ DENC   =     -1123.64163542
  -exchange      EXHF   =         0.00000000
  -V(xc)+E(xc)   XCENC  =     -1985.28392406
  PAW double counting   =     12338.96171541    -9704.48084717
  entropy T*S    EENTRO =        -0.00000000
  eigenvalues    EBANDS =      -161.16155454
  atomic energy  EATOM  =     13009.85829969
  Solvation  Ediel_sol  =         0.00000000
  ---------------------------------------------------
  free energy    TOTEN  =      -268.04246289 eV

  energy without entropy =     -268.04246289  energy(sigma->0) =     -268.04246289


--------------------------------------------------------------------------------------------------------




--------------------------------------- Iteration      1(   5)  ---------------------------------------


     EDDAV:  cpu time    3.7900: real time    3.7960
       DOS:  cpu time    0.0013: real time    0.0013
    CHARGE:  cpu time    0.2058: real time    0.2064
    MIXING:  cpu time    0.0164: real time    0.0175
    --------------------------------------------
      LOOP:  cpu time    4.0135: real time    4.0212

 eigenvalue-minimisations  :  2424
 total energy-change (2. order) :-0.1750289E+00  (-0.1742122E+00)
 number of electron     384.0000013 magnetization 
 augmentation part      -72.3624419 magnetization 

 Broyden mixing:
  rms(total) = 0.30117E+01    rms(broyden)= 0.30116E+01
  rms(prec ) = 0.31074E+01
  weight for this iteration     100.00

 Free energy of the ion-electron system (eV)
  ---------------------------------------------------
  alpha Z        PSCENC =       120.34367251
  Ewald energy   TEWEN  =    -12762.63818932
  -Hartree energ DENC   =     -1123.64163542
  -exchange      EXHF   =         0.00000000
  -V(xc)+E(xc)   XCENC  =     -1985.28392406
  PAW double counting   =     12338.96171541    -9704.48084717
  entropy T*S    EENTRO =        -0.00000000
  eigenvalues    EBANDS =      -161.33658346
  atomic energy  EATOM  =     13009.85829969
  Solvation  Ediel_sol  =         0.00000000
  ---------------------------------------------------
  free energy    TOTEN  =      -268.21749181 eV

  energy without entropy =     -268.21749181  energy(sigma->0) =     -268.21749181


--------------------------------------------------------------------------------------------------------




--------------------------------------- Iteration      1(   6)  ---------------------------------------


    POTLOK:  cpu time    0.1970: real time    0.1984
    SETDIJ:  cpu time    0.0293: real time    0.0293
    EDDIAG:  cpu time    0.4554: real time    0.4558
  RMM-DIIS:  cpu time    1.8509: real time    1.8540
    ORTHCH:  cpu time    0.0568: real time    0.0568
       DOS:  cpu time    0.0109: real time    0.0109
    CHARGE:  cpu time    0.2011: real time    0.2021
    MIXING:  cpu time    0.0205: real time    0.0206
    --------------------------------------------
      LOOP:  cpu time    2.8219: real time    2.8278

 eigenvalue-minimisations  :  1937
 total energy-change (2. order) : 0.2488574E+01  (-0.7131495E+00)
 number of electron     384.0000013 magnetization 
 augmentation part      -72.0539263 magnetization 

 Broyden mixing:
  rms(total) = 0.18404E+01    rms(broyden)= 0.18404E+01
  rms(prec ) = 0.18598E+01
  weight for this iteration     100.00

 eigenvalues of (default mixing * dielectric matrix)
  average eigenvalue GAMMA=   2.4548
  2.4548

 Free energy of the ion-electron system (eV)
  ---------------------------------------------------
  alpha Z        PSCENC =       120.34367251
  Ewald energy   TEWEN  =    -12762.63818932
  -Hartree energ DENC   =     -1137.29817377
  -exchange      EXHF   =         0.00000000
  -V(xc)+E(xc)   XCENC  =     -1982.55522785
  PAW double counting   =     16305.41136801   -13672.70990217
  entropy T*S    EENTRO =        -0.00000000
  eigenvalues    EBANDS =      -146.14076490
  atomic energy  EATOM  =     13009.85829969
  Solvation  Ediel_sol  =         0.00000000
  ---------------------------------------------------
  free energy    TOTEN  =      -265.72891781 eV

  energy without entropy =     -265.72891781  energy(sigma->0) =     -265.72891781


--------------------------------------------------------------------------------------------------------




--------------------------------------- Iteration      1(   7)  ---------------------------------------


    POTLOK:  cpu time    0.1706: real time    0.1712
    SETDIJ:  cpu time    0.0300: real time    0.0300
    EDDIAG:  cpu time    0.4553: real time    0.4553
  RMM-DIIS:  cpu time    1.9876: real time    1.9950
    ORTHCH:  cpu time    0.0560: real time    0.0560
       DOS:  cpu time    0.0013: real time    0.0013
    CHARGE:  cpu time    0.2031: real time    0.2032
    MIXING:  cpu time    0.0133: real time    0.0133
    --------------------------------------------
      LOOP:  cpu time    2.9172: real time    2.9253

 eigenvalue-minimisations  :  2131
 total energy-change (2. order) :-0.7799427E-01  (-0.2783315E+00)
 number of electron     384.0000013 magnetization 
 augmentation part      -71.9668608 magnetization 

 Broyden mixing:
  rms(total) = 0.30916E+00    rms(broyden)= 0.30916E+00
  rms(prec ) = 0.33368E+00
  weight for this iteration     100.00

 eigenvalues of (default mixing * dielectric matrix)
  average eigenvalue GAMMA=   1.8879
  1.2220  2.5539

 Free energy of the ion-electron system (eV)
  ---------------------------------------------------
  alpha Z        PSCENC =       120.34367251
  Ewald energy   TEWEN  =    -12762.63818932
  -Hartree energ DENC   =     -1149.12747474
  -exchange      EXHF   =         0.00000000
  -V(xc)+E(xc)   XCENC  =     -1979.38286122
  PAW double counting   =     22900.90218830   -20269.85933893
  entropy T*S    EENTRO =        -0.00000001
  eigenvalues    EBANDS =      -135.90320836
  atomic energy  EATOM  =     13009.85829969
  Solvation  Ediel_sol  =         0.00000000
  ---------------------------------------------------
  free energy    TOTEN  =      -265.80691208 eV

  energy without entropy =     -265.80691206  energy(sigma->0) =     -265.80691207


--------------------------------------------------------------------------------------------------------




--------------------------------------- Iteration      1(   8)  ---------------------------------------


    POTLOK:  cpu time    0.1702: real time    0.1708
    SETDIJ:  cpu time    0.0298: real time    0.0298
    EDDIAG:  cpu time    0.4581: real time    0.4591
  RMM-DIIS:  cpu time    1.9966: real time    1.9988
    ORTHCH:  cpu time    0.0563: real time    0.0563
       DOS:  cpu time    0.0011: real time    0.0012
    CHARGE:  cpu time    0.2032: real time    0.2033
    MIXING:  cpu time    0.0134: real time    0.0134
    --------------------------------------------
      LOOP:  cpu time    2.9288: real time    2.9327

 eigenvalue-minimisations  :  2127
 total energy-change (2. order) : 0.8555953E-01  (-0.2542055E-01)
 number of electron     384.0000013 magnetization 
 augmentation part      -72.0451826 magnetization 

 Broyden mixing:
  rms(total) = 0.76397E-01    rms(broyden)= 0.76395E-01
  rms(prec ) = 0.80788E-01
  weight for this iteration     100.00

 eigenvalues of (default mixing * dielectric matrix)
  average eigenvalue GAMMA=   1.7870
  2.6331  1.2499  1.4779

 Free energy of the ion-electron system (eV)
  ---------------------------------------------------
  alpha Z        PSCENC =       120.34367251
  Ewald energy   TEWEN  =    -12762.63818932
  -Hartree energ DENC   =     -1148.83747921
  -exchange      EXHF   =         0.00000000
  -V(xc)+E(xc)   XCENC  =     -1979.03289592
  PAW double counting   =     24059.20003374   -21428.20717942
  entropy T*S    EENTRO =        -0.00000000
  eigenvalues    EBANDS =      -136.40761463
  atomic energy  EATOM  =     13009.85829969
  Solvation  Ediel_sol  =         0.00000000
  ---------------------------------------------------
  free energy    TOTEN  =      -265.72135255 eV

  energy without entropy =     -265.72135255  energy(sigma->0) =     -265.72135255


--------------------------------------------------------------------------------------------------------




--------------------------------------- Iteration      1(   9)  ---------------------------------------


    POTLOK:  cpu time    0.1438: real time    0.1693
    SETDIJ:  cpu time    0.0302: real time    0.0302
    EDDIAG:  cpu time    0.4595: real time    0.4605
  RMM-DIIS:  cpu time    2.1598: real time    2.1619
    ORTHCH:  cpu time    0.0559: real time    0.0559
       DOS:  cpu time    0.0015: real time    0.0015
    CHARGE:  cpu time    0.2028: real time    0.2037
    MIXING:  cpu time    0.0132: real time    0.0132
    --------------------------------------------
      LOOP:  cpu time    3.0668: real time    3.0962

 eigenvalue-minimisations  :  2316
 total energy-change (2. order) :-0.7391639E-03  (-0.3898015E-02)
 number of electron     384.0000013 magnetization 
 augmentation part      -72.0646960 magnetization 

 Broyden mixing:
  rms(total) = 0.38182E-01    rms(broyden)= 0.38181E-01
  rms(prec ) = 0.39433E-01
  weight for this iteration     100.00

 eigenvalues of (default mixing * dielectric matrix)
  average eigenvalue GAMMA=   1.7806
  2.5918  1.0408  1.4102  2.0795

 Free energy of the ion-electron system (eV)
  ---------------------------------------------------
  alpha Z        PSCENC =       120.34367251
  Ewald energy   TEWEN  =    -12762.63818932
  -Hartree energ DENC   =     -1149.08176027
  -exchange      EXHF   =         0.00000000
  -V(xc)+E(xc)   XCENC  =     -1978.96097759
  PAW double counting   =     24146.97401452   -21515.95926021
  entropy T*S    EENTRO =        -0.00000000
  eigenvalues    EBANDS =      -136.25789104
  atomic energy  EATOM  =     13009.85829969
  Solvation  Ediel_sol  =         0.00000000
  ---------------------------------------------------
  free energy    TOTEN  =      -265.72209171 eV

  energy without entropy =     -265.72209171  energy(sigma->0) =     -265.72209171


--------------------------------------------------------------------------------------------------------




--------------------------------------- Iteration      1(  10)  ---------------------------------------


    POTLOK:  cpu time    0.1442: real time    0.1714
    SETDIJ:  cpu time    0.0298: real time    0.0298
    EDDIAG:  cpu time    0.4634: real time    0.4634
  RMM-DIIS:  cpu time    2.1432: real time    2.1467
    ORTHCH:  cpu time    0.0556: real time    0.0556
       DOS:  cpu time    0.0012: real time    0.0012
    CHARGE:  cpu time    0.2026: real time    0.2026
    MIXING:  cpu time    0.0136: real time    0.0136
    --------------------------------------------
      LOOP:  cpu time    3.0535: real time    3.0842

 eigenvalue-minimisations  :  2276
 total energy-change (2. order) :-0.4417820E-03  (-0.5175210E-03)
 number of electron     384.0000013 magnetization 
 augmentation part      -72.0620205 magnetization 

 Broyden mixing:
  rms(total) = 0.11585E-01    rms(broyden)= 0.11585E-01
  rms(prec ) = 0.12359E-01
  weight for this iteration     100.00

 eigenvalues of (default mixing * dielectric matrix)
  average eigenvalue GAMMA=   1.7191
  2.7142  2.4227  1.0993  1.0993  1.2600

 Free energy of the ion-electron system (eV)
  ---------------------------------------------------
  alpha Z        PSCENC =       120.34367251
  Ewald energy   TEWEN  =    -12762.63818932
  -Hartree energ DENC   =     -1149.60731193
  -exchange      EXHF   =         0.00000000
  -V(xc)+E(xc)   XCENC  =     -1978.92378965
  PAW double counting   =     24105.97884817   -21474.95632984
  entropy T*S    EENTRO =        -0.00000000
  eigenvalues    EBANDS =      -135.77773313
  atomic energy  EATOM  =     13009.85829969
  Solvation  Ediel_sol  =         0.00000000
  ---------------------------------------------------
  free energy    TOTEN  =      -265.72253349 eV

  energy without entropy =     -265.72253349  energy(sigma->0) =     -265.72253349


--------------------------------------------------------------------------------------------------------




--------------------------------------- Iteration      1(  11)  ---------------------------------------


    POTLOK:  cpu time    0.1434: real time    0.1694
    SETDIJ:  cpu time    0.0305: real time    0.0305
    EDDIAG:  cpu time    0.4557: real time    0.4567
  RMM-DIIS:  cpu time    2.2097: real time    2.2116
    ORTHCH:  cpu time    0.0556: real time    0.0556
       DOS:  cpu time    0.0012: real time    0.0012
    CHARGE:  cpu time    0.2032: real time    0.2042
    MIXING:  cpu time    0.0136: real time    0.0136
    --------------------------------------------
      LOOP:  cpu time    3.1129: real time    3.1428

 eigenvalue-minimisations  :  2346
 total energy-change (2. order) :-0.1509761E-03  (-0.9223702E-04)
 number of electron     384.0000013 magnetization 
 augmentation part      -72.0623099 magnetization 

 Broyden mixing:
  rms(total) = 0.35831E-02    rms(broyden)= 0.35830E-02
  rms(prec ) = 0.39919E-02
  weight for this iteration     100.00

 eigenvalues of (default mixing * dielectric matrix)
  average eigenvalue GAMMA=   1.6894
  2.6964  2.3734  1.7245  1.3408  1.0007  1.0007

 Free energy of the ion-electron system (eV)
  ---------------------------------------------------
  alpha Z        PSCENC =       120.34367251
  Ewald energy   TEWEN  =    -12762.63818932
  -Hartree energ DENC   =     -1149.80727812
  -exchange      EXHF   =         0.00000000
  -V(xc)+E(xc)   XCENC  =     -1978.90533395
  PAW double counting   =     24108.01718953   -21476.98773166
  entropy T*S    EENTRO =        -0.00000000
  eigenvalues    EBANDS =      -135.60331315
  atomic energy  EATOM  =     13009.85829969
  Solvation  Ediel_sol  =         0.00000000
  ---------------------------------------------------
  free energy    TOTEN  =      -265.72268447 eV

  energy without entropy =     -265.72268447  energy(sigma->0) =     -265.72268447


--------------------------------------------------------------------------------------------------------




--------------------------------------- Iteration      1(  12)  ---------------------------------------


    POTLOK:  cpu time    0.1442: real time    0.1737
    SETDIJ:  cpu time    0.0304: real time    0.0304
    EDDIAG:  cpu time    0.4570: real time    0.4570
  RMM-DIIS:  cpu time    2.1397: real time    2.1427
    ORTHCH:  cpu time    0.0554: real time    0.0554
       DOS:  cpu time    0.0011: real time    0.0011
    CHARGE:  cpu time    0.2030: real time    0.2031
    MIXING:  cpu time    0.0143: real time    0.0143
    --------------------------------------------
      LOOP:  cpu time    3.0451: real time    3.0777

 eigenvalue-minimisations  :  2299
 total energy-change (2. order) :-0.1064536E-04  (-0.1741296E-04)
 number of electron     384.0000013 magnetization 
 augmentation part      -72.0623230 magnetization 

 Broyden mixing:
  rms(total) = 0.16837E-02    rms(broyden)= 0.16837E-02
  rms(prec ) = 0.18342E-02
  weight for this iteration     100.00

 eigenvalues of (default mixing * dielectric matrix)
  average eigenvalue GAMMA=   1.6980
  2.6489  2.5938  2.1289  0.9898  0.9898  1.2674  1.2674

 Free energy of the ion-electron system (eV)
  ---------------------------------------------------
  alpha Z        PSCENC =       120.34367251
  Ewald energy   TEWEN  =    -12762.63818932
  -Hartree energ DENC   =     -1149.87805812
  -exchange      EXHF   =         0.00000000
  -V(xc)+E(xc)   XCENC  =     -1978.90196417
  PAW double counting   =     24105.71368715   -21474.68074203
  entropy T*S    EENTRO =        -0.00000000
  eigenvalues    EBANDS =      -135.53940084
  atomic energy  EATOM  =     13009.85829969
  Solvation  Ediel_sol  =         0.00000000
  ---------------------------------------------------
  free energy    TOTEN  =      -265.72269511 eV

  energy without entropy =     -265.72269511  energy(sigma->0) =     -265.72269511


--------------------------------------------------------------------------------------------------------




--------------------------------------- Iteration      1(  13)  ---------------------------------------


    POTLOK:  cpu time    0.1446: real time    0.1718
    SETDIJ:  cpu time    0.0301: real time    0.0301
    EDDIAG:  cpu time    0.4573: real time    0.4583
  RMM-DIIS:  cpu time    2.1238: real time    2.1269
    ORTHCH:  cpu time    0.0552: real time    0.0552
       DOS:  cpu time    0.0013: real time    0.0013
    CHARGE:  cpu time    0.1992: real time    0.1992
    MIXING:  cpu time    0.0143: real time    0.0143
    --------------------------------------------
      LOOP:  cpu time    3.0257: real time    3.0572

 eigenvalue-minimisations  :  2261
 total energy-change (2. order) :-0.3810786E-05  (-0.3058662E-05)
 number of electron     384.0000013 magnetization 
 augmentation part      -72.0619303 magnetization 

 Broyden mixing:
  rms(total) = 0.62439E-03    rms(broyden)= 0.62437E-03
  rms(prec ) = 0.68648E-03
  weight for this iteration     100.00

 eigenvalues of (default mixing * dielectric matrix)
  average eigenvalue GAMMA=   1.6736
  2.6832  2.6832  2.2253  1.5243  1.1522  1.1522  0.9842  0.9842

 Free energy of the ion-electron system (eV)
  ---------------------------------------------------
  alpha Z        PSCENC =       120.34367251
  Ewald energy   TEWEN  =    -12762.63818932
  -Hartree energ DENC   =     -1149.92708647
  -exchange      EXHF   =         0.00000000
  -V(xc)+E(xc)   XCENC  =     -1978.89830973
  PAW double counting   =     24104.61356108   -21473.57902572
  entropy T*S    EENTRO =        -0.00000000
  eigenvalues    EBANDS =      -135.49562097
  atomic energy  EATOM  =     13009.85829969
  Solvation  Ediel_sol  =         0.00000000
  ---------------------------------------------------
  free energy    TOTEN  =      -265.72269892 eV

  energy without entropy =     -265.72269892  energy(sigma->0) =     -265.72269892


--------------------------------------------------------------------------------------------------------




--------------------------------------- Iteration      1(  14)  ---------------------------------------


    POTLOK:  cpu time    0.1433: real time    0.1702
    SETDIJ:  cpu time    0.0301: real time    0.0301
    EDDIAG:  cpu time    0.4609: real time    0.4609
  RMM-DIIS:  cpu time    1.8164: real time    1.8185
    ORTHCH:  cpu time    0.0553: real time    0.0553
       DOS:  cpu time    0.0010: real time    0.0010
    --------------------------------------------
      LOOP:  cpu time    2.5069: real time    2.5359

 eigenvalue-minimisations  :  1895
 total energy-change (2. order) :-0.4973772E-06  (-0.6288244E-06)
 number of electron     384.0000013 magnetization 
 augmentation part      -72.0619303 magnetization 

 Free energy of the ion-electron system (eV)
  ---------------------------------------------------
  alpha Z        PSCENC =       120.34367251
  Ewald energy   TEWEN  =    -12762.63818932
  -Hartree energ DENC   =     -1149.94435278
  -exchange      EXHF   =         0.00000000
  -V(xc)+E(xc)   XCENC  =     -1978.89671756
  PAW double counting   =     24104.91334055   -21473.87786600
  entropy T*S    EENTRO =        -0.00000000
  eigenvalues    EBANDS =      -135.48088652
  atomic energy  EATOM  =     13009.85829969
  Solvation  Ediel_sol  =         0.00000000
  ---------------------------------------------------
  free energy    TOTEN  =      -265.72269942 eV

  energy without entropy =     -265.72269942  energy(sigma->0) =     -265.72269942


--------------------------------------------------------------------------------------------------------




 average (electrostatic) potential at core
  the test charge radii are     1.1631  1.1712  1.1897
  (the norm of the test charge is              1.0000)
       1 -31.9935       2 -32.0933       3 -31.8660       4 -32.2246       5 -32.2037
       6 -32.0580       7 -32.2704       8 -32.0554       9 -32.0114      10 -32.1135
      11 -32.3494      12 -32.0846      13 -32.1442      14 -32.2780      15 -31.9505
      16 -32.0819      17 -88.6561      18 -88.4961      19 -88.6391      20 -88.5983
      21 -88.5506      22 -88.3293      23 -88.4423      24 -88.5420      25 -88.4866
      26 -88.3800      27 -88.6305      28 -88.6180      29 -88.3823      30 -88.6464
      31 -88.7075      32 -88.5572      33 -89.5659      34 -89.6211      35 -89.7180
      36 -89.8701      37 -89.5900      38 -89.5106      39 -89.3210      40 -89.5678
      41 -89.8123      42 -89.2778      43 -89.3901      44 -89.5811      45 -89.6664
      46 -89.4301      47 -89.4145      48 -89.4094      49 -89.3894      50 -89.6091
      51 -89.3990      52 -89.4994      53 -89.4909      54 -89.5048      55 -89.6106
      56 -89.5522      57 -89.1415      58 -89.7287      59 -89.6567      60 -89.1309
      61 -89.8841      62 -89.4982      63 -89.4838      64 -89.5371      65 -89.7431
      66 -89.8212      67 -89.7093      68 -89.3870      69 -89.2679      70 -89.5211
      71 -89.2424      72 -89.3001
 
 
 
 E-fermi :   4.9434     XC(G=0):  -8.8281     alpha+bet : -9.8105


 k-point     1 :       0.2500    0.2500    0.2500
  band No.  band energies     occupation 
      1      -7.8382      2.00000
      2      -7.6138      2.00000
      3      -7.5504      2.00000
      4      -7.4170      2.00000
      5      -7.3368      2.00000
      6      -7.2441      2.00000
      7      -7.1610      2.00000
      8      -7.1037      2.00000
      9      -7.0504      2.00000
     10      -6.9180      2.00000
     11      -6.8393      2.00000
     12      -6.7554      2.00000
     13      -6.7003      2.00000
     14      -6.6343      2.00000
     15      -6.6093      2.00000
     16      -6.5113      2.00000
     17      -6.4821      2.00000
     18      -6.4312      2.00000
     19      -6.3907      2.00000
     20      -6.3414      2.00000
     21      -6.2824      2.00000
     22      -6.2620      2.00000
     23      -6.2104      2.00000
     24      -6.1951      2.00000
     25      -6.1504      2.00000
     26      -6.1367      2.00000
     27      -6.0952      2.00000
     28      -6.0852      2.00000
     29      -6.0271      2.00000
     30      -5.9892      2.00000
     31      -5.9622      2.00000
     32      -5.9257      2.00000
     33      -5.9154      2.00000
     34      -5.8632      2.00000
     35      -5.8442      2.00000
     36      -5.8211      2.00000
     37      -5.7987      2.00000
     38      -5.7663      2.00000
     39      -5.7269      2.00000
     40      -5.6663      2.00000
     41      -4.5345      2.00000
     42      -4.4067      2.00000
     43      -4.3308      2.00000
     44      -4.2646      2.00000
     45      -4.1682      2.00000
     46      -4.1357      2.00000
     47      -4.0711      2.00000
     48      -3.9719      2.00000
     49      -3.9372      2.00000
     50      -3.8792      2.00000
     51      -3.7855      2.00000
     52      -3.6507      2.00000
     53      -3.6206      2.00000
     54      -3.5291      2.00000
     55      -3.4311      2.00000
     56      -3.3632      2.00000
     57      -3.1722      2.00000
     58      -3.0980      2.00000
     59      -3.0734      2.00000
     60      -2.9914      2.00000
     61      -2.9438      2.00000
     62      -2.8033      2.00000
     63      -2.7646      2.00000
     64      -2.6870      2.00000
     65      -2.5673      2.00000
     66      -2.5172      2.00000
     67      -2.4200      2.00000
     68      -2.3700      2.00000
     69      -2.1937      2.00000
     70      -1.9899      2.00000
     71      -1.9156      2.00000
     72      -1.5878      2.00000
     73      -0.1345      2.00000
     74      -0.0724      2.00000
     75       0.0091      2.00000
     76       0.1557      2.00000
     77       0.2230      2.00000
     78       0.2909      2.00000
     79       0.3218      2.00000
     80       0.4371      2.00000
     81       0.4779      2.00000
     82       0.5177      2.00000
     83       0.5505      2.00000
     84       0.6392      2.00000
     85       0.6823      2.00000
     86       0.7210      2.00000
     87       0.7906      2.00000
     88       0.8441      2.00000
     89       0.9233      2.00000
     90       0.9403      2.00000
     91       0.9692      2.00000
     92       1.0244      2.00000
     93       1.0722      2.00000
     94       1.0998      2.00000
     95       1.1446      2.00000
     96       1.1708      2.00000
     97       1.2247      2.00000
     98       1.2587      2.00000
     99       1.3026      2.00000
    100       1.3398      2.00000
    101       1.3928      2.00000
    102       1.4357      2.00000
    103       1.4725      2.00000
    104       1.4916      2.00000
    105       1.5386      2.00000
    106       1.5864      2.00000
    107       1.6344      2.00000
    108       1.6532      2.00000
    109       1.6921      2.00000
    110       1.7261      2.00000
    111       1.7800      2.00000
    112       1.8038      2.00000
    113       1.8418      2.00000
    114       1.8679      2.00000
    115       1.8901      2.00000
    116       1.9236      2.00000
    117       1.9475      2.00000
    118       2.0051      2.00000
    119       2.0450      2.00000
    120       2.0591      2.00000
    121       2.0906      2.00000
    122       2.1456      2.00000
    123       2.1659      2.00000
    124       2.2114      2.00000
    125       2.2305      2.00000
    126       2.2913      2.00000
    127       2.3057      2.00000
    128       2.3203      2.00000
    129       2.3620      2.00000
    130       2.3759      2.00000
    131       2.4243      2.00000
    132       2.4409      2.00000
    133       2.4779      2.00000
    134       2.4950      2.00000
    135       2.5302      2.00000
    136       2.5625      2.00000
    137       2.6024      2.00000
    138       2.6373      2.00000
    139       2.6649      2.00000
    140       2.6914      2.00000
    141       2.7356      2.00000
    142       2.8071      2.00000
    143       2.8285      2.00000
    144       2.8996      2.00000
    145       2.9138      2.00000
    146       2.9439      2.00000
    147       2.9762      2.00000
    148       3.0098      2.00000
    149       3.0402      2.00000
    150       3.0837      2.00000
    151       3.1258      2.00000
    152       3.1738      2.00000
    153       3.1994      2.00000
    154       3.2264      2.00000
    155       3.2585      2.00000
    156       3.3144      2.00000
    157       3.3511      2.00000
    158       3.4299      2.00000
    159       3.4774      2.00000
    160       3.4926      2.00000
    161       3.5197      2.00000
    162       3.5442      2.00000
    163       3.5607      2.00000
    164       3.6220      2.00000
    165       3.6493      2.00000
    166       3.6940      2.00000
    167       3.7224      2.00000
    168       3.7417      2.00000
    169       3.7769      2.00000
    170       3.8394      2.00000
    171       3.8713      2.00000
    172       3.9040      2.00000
    173       3.9303      2.00000
    174       3.9643      2.00000
    175       4.0122      2.00000
    176       4.0214      2.00000
    177       4.0735      2.00000
    178       4.0851      2.00000
    179       4.1415      2.00000
    180       4.1947      2.00000
    181       4.2286      2.00000
    182       4.2537      2.00000
    183       4.2822      2.00000
    184       4.3110      2.00000
    185       4.3662      2.00000
    186       4.4033      2.00000
    187       4.4378      2.00000
    188       4.4734      2.00000
    189       4.5556      2.00000
    190       4.5726      2.00000
    191       4.6320      2.00000
    192       4.7063      2.00000
    193       5.1734      0.00000
    194       5.2788      0.00000
    195       5.3558      0.00000
    196       5.4384      0.00000
[...]
    FORCOR:  cpu time    0.3859: real time    0.3862
    FORHAR:  cpu time    0.2915: real time    0.2915
    MIXING:  cpu time    0.0134: real time    0.0134
    OFIELD:  cpu time    0.0003: real time    0.0006

  FORCE on cell =-STRESS in cart. coord.  units (eV):
  Direction    XX          YY          ZZ          XY          YZ          ZX
  --------------------------------------------------------------------------------------
  Alpha Z   120.34367   120.34367   120.34367
  Ewald   -4207.51590 -4333.04878 -4222.15442   -15.28431     9.37721   -31.27608
  Hartree   422.96980   342.33447   384.65781    10.49438     8.44133   -18.13622
  E(xc)   -1465.08769 -1465.79975 -1464.38657     0.11995     0.26681    -0.03286
  Local   -2609.38303 -2419.70854 -2564.15222     3.45981   -18.91418    48.79306
  n-local  6033.24855  6043.45923  6035.22982    -3.55206    -1.67985    -0.40701
  augment -1317.63314 -1321.47291 -1319.06283     0.20842     0.22870    -0.02624
  Kinetic  3016.32574  3039.05689  3032.65730    -1.54083    -0.99495     1.98426
  Fock        0.00000     0.00000     0.00000     0.00000     0.00000     0.00000
  -------------------------------------------------------------------------------------
  Total      -6.73200     5.16430     3.13257    -6.09464    -3.27493     0.89891
  in kB      -4.52532     3.47150     2.10575    -4.09688    -2.20144     0.60426
  external pressure =        0.35 kB  Pullay stress =        0.00 kB


 VOLUME and BASIS-vectors are now :
 -----------------------------------------------------------------------------
  energy-cutoff  :      250.00
  volume of cell :     2383.45
      direct lattice vectors                 reciprocal lattice vectors
    13.951083069  0.000000000  0.000000000     0.071679023 -0.000336609  0.000454127
     0.065479256 13.943431987  0.000000000     0.000000000  0.071718355 -0.000023039
    -0.077608478  0.003936046 12.252582810     0.000000000  0.000000000  0.081615445

  length of vectors
    13.951083069 13.943585734 12.252829228     0.071681252  0.071718358  0.081615445


 FORCES acting on ions
    electron-ion (+dipol)            ewald-force                    non-local-force                 convergence-correction
 -----------------------------------------------------------------------------------------------
   0.195E+01 -.217E+02 -.229E+02   -.446E+00 0.234E+02 0.251E+02   -.122E+01 -.142E+01 -.155E+01   -.810E-04 -.627E-04 -.822E-04
   0.467E+01 -.459E+01 0.218E+01   -.585E+01 0.315E+01 -.283E+01   0.872E+00 0.157E+01 0.516E+00   -.187E-03 0.135E-03 0.578E-05
   0.122E+02 -.233E+00 0.345E+01   -.134E+02 -.546E+00 -.275E+01   0.115E+01 0.534E+00 -.725E+00   -.141E-03 0.151E-03 -.531E-04
   -.310E+01 0.199E+02 0.172E+02   0.268E+01 -.216E+02 -.179E+02   0.451E+00 0.134E+01 0.944E+00   0.190E-04 0.728E-04 0.583E-05
   -.105E+02 -.222E+01 -.269E+01   0.115E+02 0.264E+01 0.244E+01   -.835E+00 -.223E+00 0.317E+00   0.139E-04 -.851E-04 -.155E-03
   -.188E+02 -.852E+01 -.123E+02   0.207E+02 0.858E+01 0.131E+02   -.158E+01 -.193E+00 -.657E+00   0.224E-03 0.107E-03 0.741E-04
   0.116E+02 0.272E+01 -.498E+01   -.125E+02 -.381E+01 0.622E+01   0.122E+01 0.127E+01 -.677E+00   -.214E-03 -.148E-03 -.884E-04
   0.664E+01 0.132E+02 -.829E+01   -.679E+01 -.151E+02 0.841E+01   0.188E+00 0.187E+01 0.107E+00   -.161E-03 0.770E-05 0.972E-04
   -.289E+01 0.915E+01 0.119E+02   0.292E+01 -.125E+02 -.131E+02   0.873E+00 0.190E+01 0.980E+00   -.105E-03 -.122E-03 0.939E-04
   -.641E+01 0.203E+02 0.977E+01   0.581E+01 -.221E+02 -.108E+02   0.542E+00 0.171E+01 0.776E+00   0.140E-03 -.711E-04 -.371E-03
   0.594E+01 0.104E+02 -.123E+02   -.625E+01 -.119E+02 0.138E+02   0.570E+00 0.138E+01 -.108E+01   -.153E-03 -.488E-04 0.956E-04
   0.121E+02 0.109E+02 -.215E+01   -.123E+02 -.133E+02 0.230E+01   0.353E+00 0.205E+01 0.149E-01   0.232E-05 0.166E-03 -.136E-03
   0.215E+02 -.235E+01 0.912E+01   -.234E+02 0.230E+01 -.107E+02   0.145E+01 -.686E-01 0.131E+01   -.594E-04 0.331E-05 -.905E-04
   -.170E+01 0.295E+02 0.756E+01   0.183E+01 -.304E+02 -.731E+01   0.392E-01 0.128E+01 -.812E-01   -.814E-04 -.302E-04 -.117E-04
   0.867E+00 -.255E+02 -.485E+01   -.527E+00 0.278E+02 0.685E+01   -.445E+00 -.185E+01 -.169E+01   0.215E-05 0.135E-04 0.260E-03
   0.685E+01 0.377E+01 0.513E+01   -.805E+01 -.418E+01 -.524E+01   0.114E+01 -.238E-01 0.239E-03   0.214E-04 0.146E-04 -.127E-04
   0.862E+00 -.109E+02 0.896E+01   -.177E+01 0.728E+01 -.110E+02   0.567E+00 0.398E+01 0.177E+01   -.103E-04 0.782E-04 0.195E-03
   0.137E+02 -.636E+01 -.511E+01   -.150E+02 0.272E+01 0.572E+01   0.126E+01 0.334E+01 -.473E+00   0.215E-03 0.706E-04 -.125E-04
   -.320E+01 -.143E+02 0.156E+02   0.346E+01 0.101E+02 -.131E+02   -.585E-02 0.457E+01 -.283E+01   0.127E-03 0.140E-03 -.689E-04
   -.468E+01 0.143E+02 -.144E+02   0.550E+00 -.156E+02 0.141E+02   0.397E+01 0.104E+01 0.397E+00   0.149E-03 -.966E-04 0.119E-03
   -.941E+01 -.373E+01 -.108E+01   0.815E+01 0.977E+00 0.388E+01   0.151E+01 0.246E+01 -.284E+01   0.342E-04 0.154E-03 0.685E-04
   0.828E+00 0.986E+01 -.683E+01   0.175E+01 -.371E+01 0.669E+01   -.224E+01 -.558E+01 -.289E-01   -.246E-03 0.109E-03 0.331E-03
   -.223E+01 0.290E+01 -.770E+01   -.271E+01 -.256E+01 0.428E+01   0.495E+01 -.539E+00 0.334E+01   0.248E-03 0.343E-04 -.279E-03
   -.367E+01 0.107E+02 -.169E+02   0.252E+00 -.135E+02 0.200E+02   0.298E+01 0.284E+01 -.314E+01   -.219E-04 -.787E-04 0.161E-03
   -.231E+01 -.795E+01 -.901E+01   0.137E+01 0.776E+01 0.100E+02   0.110E+01 0.259E+00 -.939E+00   0.222E-04 -.240E-04 0.275E-03
   0.478E+01 0.168E+02 0.168E+02   -.266E+01 -.160E+02 -.199E+02   -.174E+01 -.107E+01 0.316E+01   -.116E-03 -.243E-03 -.819E-04
   0.144E+02 -.427E+01 0.435E+01   -.139E+02 0.307E+01 -.256E+01   -.641E+00 0.122E+01 -.151E+01   -.211E-03 0.321E-04 -.143E-03
   -.151E+01 0.114E+01 0.192E+02   0.828E+00 0.562E+00 -.193E+02   0.449E+00 -.165E+01 0.125E+00   0.264E-03 0.700E-04 -.115E-03
   -.117E+02 -.526E+01 -.697E+01   0.139E+02 0.519E+00 0.392E+01   -.188E+01 0.389E+01 0.278E+01   -.110E-03 -.191E-03 -.920E-04
   0.123E+01 -.836E+01 -.225E+02   -.635E+01 0.104E+02 0.266E+02   0.497E+01 -.189E+01 -.357E+01   0.231E-03 -.754E-05 0.220E-03
   0.500E+01 0.137E+02 -.147E+02   -.526E+01 -.179E+02 0.154E+02   0.244E+00 0.371E+01 -.101E+01   -.271E-03 -.165E-03 0.196E-03
   -.624E+01 0.101E+01 0.147E+02   0.640E+01 0.262E+01 -.170E+02   -.564E+00 -.320E+01 0.258E+01   -.810E-04 -.241E-03 0.126E-03
   -.167E+02 0.147E+02 -.313E+02   0.210E+02 -.151E+02 0.321E+02   -.424E+01 0.493E+00 -.431E+00   -.622E-04 0.301E-04 0.642E-04
   0.447E+01 -.260E+02 -.703E+00   -.319E+01 0.281E+02 0.134E+00   -.713E+00 -.200E+01 0.500E+00   -.308E-03 0.125E-03 -.341E-03
   -.273E+02 0.153E+02 -.343E+01   0.308E+02 -.178E+02 0.598E+01   -.307E+01 0.271E+01 -.299E+01   0.182E-03 0.506E-04 -.118E-03
   0.441E-01 -.486E+01 -.256E+01   0.626E+00 0.564E+01 0.516E+00   -.954E+00 -.806E+00 0.203E+01   0.279E-03 -.167E-04 0.237E-04
   -.190E+02 -.123E+02 -.131E+02   0.211E+02 0.139E+02 0.140E+02   -.243E+01 -.112E+01 -.729E+00   0.289E-03 0.355E-03 -.478E-04
   -.140E+02 0.638E+01 -.642E+01   0.161E+02 -.509E+01 0.690E+01   -.214E+01 -.130E+01 -.418E+00   -.162E-03 -.112E-03 -.110E-03
   0.192E+02 0.239E+02 0.342E+02   -.226E+02 -.239E+02 -.372E+02   0.360E+01 -.476E+00 0.309E+01   0.667E-04 0.744E-04 -.150E-03
   0.991E+01 -.380E+02 0.115E+02   -.854E+01 0.420E+02 -.136E+02   -.151E+01 -.429E+01 0.167E+01   -.349E-03 -.143E-03 0.331E-04
   -.396E+02 0.288E+02 -.906E+01   0.423E+02 -.317E+02 0.908E+01   -.261E+01 0.309E+01 0.507E+00   0.323E-03 0.207E-04 -.136E-03
   -.154E+02 -.329E+01 -.356E+02   0.174E+02 0.117E+01 0.378E+02   -.168E+01 0.231E+01 -.253E+01   0.159E-03 0.105E-03 -.617E-04
   0.503E+02 -.176E+02 -.615E+01   -.549E+02 0.187E+02 0.729E+01   0.490E+01 -.606E+00 -.861E+00   -.285E-03 0.343E-04 -.119E-04
   -.360E+01 0.199E+02 -.174E+02   0.733E+01 -.211E+02 0.173E+02   -.414E+01 0.118E+01 0.236E+00   -.204E-03 0.226E-03 0.141E-03
   -.220E+01 -.111E+02 0.139E+02   0.234E+01 0.137E+02 -.168E+02   -.386E+00 -.250E+01 0.235E+01   -.942E-04 0.279E-03 -.157E-03
   -.114E+02 -.253E+02 -.190E+02   0.126E+02 0.295E+02 0.177E+02   -.131E+01 -.332E+01 0.122E+01   -.163E-03 -.702E-04 -.741E-04
   -.185E+02 -.209E+02 -.121E+02   0.207E+02 0.251E+02 0.144E+02   -.225E+01 -.385E+01 -.271E+01   0.275E-03 -.361E-03 -.471E-03
   -.383E+02 0.133E+02 -.337E+02   0.425E+02 -.128E+02 0.364E+02   -.409E+01 -.753E+00 -.289E+01   0.588E-05 -.729E-04 -.176E-03
   -.316E+01 0.659E+01 -.190E+02   0.151E+01 -.579E+01 0.206E+02   0.189E+01 -.942E+00 -.167E+01   0.121E-03 -.228E-03 0.220E-04
   0.311E+02 0.123E+02 -.120E+02   -.345E+02 -.133E+02 0.145E+02   0.297E+01 0.131E+01 -.287E+01   -.466E-03 -.740E-04 0.211E-04
   0.256E+02 0.570E+01 0.253E+02   -.282E+02 -.693E+01 -.275E+02   0.233E+01 0.137E+01 0.237E+01   -.131E-03 0.134E-03 -.140E-03
   0.208E+02 -.187E+02 0.239E+02   -.234E+02 0.179E+02 -.263E+02   0.236E+01 0.130E+01 0.245E+01   -.593E-04 0.771E-04 0.393E-03
   0.170E+02 0.345E+02 0.241E+02   -.189E+02 -.377E+02 -.260E+02   0.199E+01 0.333E+01 0.202E+01   0.200E-03 -.158E-03 0.166E-03
   -.224E+01 0.171E+02 0.108E+02   0.246E+01 -.181E+02 -.113E+02   0.986E-01 0.796E+00 0.831E-01   0.373E-05 -.369E-03 0.353E-03
   -.153E+02 -.313E+02 -.180E+02   0.190E+02 0.331E+02 0.200E+02   -.433E+01 -.170E+01 -.180E+01   -.342E-03 0.187E-03 -.165E-03
   -.753E+01 -.354E+02 0.126E+02   0.912E+01 0.383E+02 -.151E+02   -.154E+01 -.307E+01 0.214E+01   0.138E-03 0.641E-05 -.613E-04
   -.207E+02 0.458E+02 -.267E+01   0.231E+02 -.486E+02 0.460E+01   -.235E+01 0.204E+01 -.186E+01   0.783E-04 -.245E-03 0.373E-03
   0.316E+02 0.109E+02 0.878E+01   -.348E+02 -.947E+01 -.750E+01   0.311E+01 -.165E+01 -.196E+01   -.157E-03 -.155E-03 -.129E-03
   0.514E+01 -.137E+02 -.282E+02   -.474E+01 0.165E+02 0.284E+02   -.952E+00 -.248E+01 -.639E-01   0.786E-05 -.172E-03 0.424E-03
   0.989E+01 -.265E+02 0.283E+02   -.108E+02 0.290E+02 -.309E+02   0.985E+00 -.261E+01 0.238E+01   0.127E-04 -.222E-03 -.127E-03
   0.904E+01 0.527E+00 0.544E+01   -.103E+02 0.102E+01 -.585E+01   0.124E+01 -.186E+01 0.351E+00   0.290E-03 -.145E-03 0.935E-04
   -.280E+02 -.327E+02 0.531E+02   0.293E+02 0.373E+02 -.551E+02   -.145E+01 -.467E+01 0.179E+01   0.832E-04 0.165E-03 -.119E-03
   -.127E+02 0.368E+02 -.158E+02   0.140E+02 -.391E+02 0.182E+02   -.160E+01 0.207E+01 -.252E+01   0.697E-04 0.121E-03 0.163E-03
   0.164E+02 -.300E+02 0.150E+02   -.163E+02 0.336E+02 -.157E+02   -.236E+00 -.393E+01 0.739E+00   0.107E-03 -.562E-04 0.888E-04
   -.855E+01 -.740E+01 0.507E+01   0.987E+01 0.768E+01 -.661E+01   -.105E+01 -.170E-01 0.182E+01   -.195E-03 -.117E-03 0.771E-05
   0.662E+01 -.403E+02 0.502E+02   -.646E+01 0.435E+02 -.541E+02   -.867E+00 -.206E+01 0.375E+01   -.118E-03 0.122E-03 0.285E-03
   -.312E+02 0.484E+02 0.354E+02   0.336E+02 -.519E+02 -.390E+02   -.186E+01 0.309E+01 0.385E+01   0.986E-04 -.172E-03 0.963E-04
   0.121E+02 -.109E+02 0.415E+02   -.116E+02 0.132E+02 -.442E+02   -.734E+00 -.196E+01 0.224E+01   -.186E-03 -.961E-05 -.163E-03
   -.106E+02 0.301E+02 -.800E+01   0.966E+01 -.334E+02 0.940E+01   0.114E+01 0.322E+01 -.729E+00   0.430E-04 0.836E-04 0.278E-03
   -.311E+02 -.499E+02 -.119E+02   0.322E+02 0.531E+02 0.153E+02   -.100E+01 -.282E+01 -.315E+01   0.146E-03 0.325E-04 -.193E-03
   0.105E+02 0.376E+02 -.251E+02   -.131E+02 -.418E+02 0.268E+02   0.214E+01 0.379E+01 -.195E+01   -.112E-03 0.630E-04 -.718E-04
   0.570E+02 -.217E+02 -.374E+02   -.615E+02 0.224E+02 0.398E+02   0.452E+01 -.383E+00 -.259E+01   0.313E-03 0.286E-03 -.212E-03
 -----------------------------------------------------------------------------------------------
   -.348E+01 -.545E+01 0.823E+00   0.711E-14 0.103E-12 -.568E-13   0.348E+01 0.545E+01 -.826E+00   -.637E-03 -.575E-03 0.322E-03
 
 
 POSITION                                       TOTAL-FORCE (eV/Angst)
 -----------------------------------------------------------------------------------
      0.92054     10.63390      5.77314         0.288705      0.277756      0.700232
      2.96859      8.53945      3.26055        -0.314169      0.139598     -0.128379
      3.93275      5.60919      6.01208        -0.057324     -0.244010     -0.024572
      8.22362     11.53550      9.19515         0.037543     -0.362028      0.155797
      6.73885     13.46640      0.24870         0.164666      0.196518      0.063840
      9.45933      8.21124      0.16990         0.316954     -0.128207      0.107398
      5.54503      9.64608     11.83130         0.352929      0.181194      0.560125
      4.17407     12.60870      3.07794         0.045363      0.013225      0.225158
      6.78515      7.31217      9.69432         0.894712     -1.504661     -0.195847
      9.53778      1.60343      2.93649        -0.057576     -0.058450     -0.223322
      8.25323      4.23467     12.00570         0.262948     -0.093121      0.396894
      0.26878      7.25513      5.90170         0.164830     -0.375649      0.167860
      3.11977      0.90554      0.12680        -0.424375     -0.117496     -0.321276
     13.76760     13.86480      8.80128         0.168394      0.339961      0.167135
      1.21049     10.50340     11.93260        -0.105293      0.417313      0.317200
     -0.01728      7.01090     12.10320        -0.061463     -0.435125     -0.110890
      2.91335      8.45215      9.42800        -0.343105      0.370053     -0.255852
     12.60510      9.70283      2.89530         0.046541     -0.304488      0.140773
     10.93540      5.79738      9.13199         0.251329      0.285699     -0.351421
     12.71590      2.74511     11.93980        -0.156079     -0.247808      0.034698
      8.13388      4.19960      6.08010         0.246566     -0.291241     -0.037433
      6.47134     13.70170      6.39279         0.331101      0.566222     -0.165396
      8.57784     11.16540      3.35678         0.004645     -0.202689     -0.076179
     11.44080     12.53870     12.04210        -0.436663      0.093008     -0.011201
      1.25780      4.27908      9.12997         0.153193      0.058953      0.070652
      2.28028      1.25682      6.15292         0.382689     -0.321434      0.093179
      5.14416      2.89578      3.13811        -0.047607      0.024462      0.280301
     12.47390      2.57511      5.79649        -0.236293      0.053120      0.053107
      6.63082      7.19371      3.46421         0.264200     -0.846553     -0.265156
     11.56830      5.46084      2.80345        -0.153852      0.130285      0.485503
      5.27815      3.02314      9.39605        -0.020019     -0.483615     -0.318961
      9.65808      1.12556      9.03263        -0.398791      0.429922      0.290596
      0.00892     13.85080     11.75170         0.071211      0.014758      0.354652
      5.29017      2.55100      0.19123         0.576329      0.039129     -0.068894
      2.61566      8.01270      0.16823         0.415177      0.240321     -0.436937
     11.01520      5.45467     12.19990        -0.283505     -0.030708     -0.011129
      8.22185     10.80490     12.06050        -0.369499      0.451738      0.181607
      6.73317     13.92113      3.15088        -0.017099     -0.006461      0.064090
      3.87204      5.66617      3.11046         0.270929     -0.444287      0.040851
      1.37008     11.02400      3.09378        -0.150345     -0.283004     -0.470929
     12.23890      2.58431      2.66840         0.158432      0.126048      0.525008
      9.46091      8.30435      3.45425         0.305691      0.192118     -0.271792
      2.50064      0.93349      2.80373         0.290371      0.465822      0.283152
      0.23884      6.70729      2.83085        -0.411717      0.048361      0.193331
      8.16963      4.07895      3.15644        -0.245762      0.062425     -0.512368
      5.44260      9.60972      2.86558        -0.139679      0.874129     -0.066182
     11.21980     12.26320      3.35475         0.016044      0.307574     -0.431646
      1.13484      4.27357     12.25074         0.140887     -0.256990     -0.124764
      9.53187      1.17039     12.11260         0.237582     -0.135045     -0.107273
      7.10060      6.72921      0.25761        -0.457003      0.268996     -0.291308
      4.21550     12.21000     12.18100        -0.241333      0.139186      0.187195
     12.50690      9.49365     12.10000        -0.227170      0.496419      0.027798
     13.68810     13.73690      5.85439         0.097341      0.134231      0.097041
      5.07703      2.83385      6.36451         0.315050     -0.124814     -0.398132
      2.99300      8.39786      6.08073        -0.617131      0.146253      0.149518
     10.82310      5.56321      6.21545         0.054285     -0.185590     -0.291942
      8.27826     11.51990      6.23869         0.088348     -0.691824      0.074272
      6.86591      0.04501      9.56739        -0.106203     -0.218623     -0.675124
      4.13800      5.55478      9.16256        -0.548379      0.326447      0.107425
      1.41811     10.92450      9.23869         0.081536     -0.121709     -0.194868
     12.47450      2.66649      8.89263        -0.002959     -0.312127     -0.060438
      9.48250      8.28537      9.49458        -0.155353     -0.082597     -0.159204
      2.45420      1.37196      9.16863        -0.275057     -0.229070     -0.098566
     13.76270      7.10508      9.03949        -0.094983     -0.380646      0.035025
      8.08038      3.98689      9.22076         0.265156      0.262552      0.277339
      5.71906      9.54879      9.00187        -0.704655      1.125385     -0.079333
     10.89730     12.45010      9.01483         0.519514     -0.388661      0.265030
      1.19469      4.03598      6.16212        -0.232104      0.399936     -0.428587
      9.58650      1.32530      5.67415         0.192419     -0.017810      0.667790
      6.52657      6.68971      6.31461         0.157838      0.350764      0.263698
      3.96684     12.56330      6.19399        -0.524665     -0.398166     -0.233537
     12.50180      9.33943      6.02096        -0.014241      0.274826     -0.206433
 -----------------------------------------------------------------------------------
    total drift:                                0.000599      0.004050     -0.002251


--------------------------------------------------------------------------------------------------------



  FREE ENERGIE OF THE ION-ELECTRON SYSTEM (eV)
  ---------------------------------------------------
  free  energy   TOTEN  =      -265.72269942 eV

  energy  without entropy=     -265.72269942  energy(sigma->0) =     -265.72269942
 


--------------------------------------------------------------------------------------------------------


    POTLOK:  cpu time    0.1697: real time    0.1707


--------------------------------------------------------------------------------------------------------


     LOOP+:  cpu time   50.2487: real time   50.6021
    4ORBIT:  cpu time    0.0000: real time    0.0000

 total amount of memory used by VASP MPI-rank0    78616. kBytes
=======================================================================

   base      :      30000. kBytes
   nonlr-proj:       5496. kBytes
   fftplans  :       8138. kBytes
   grid      :      14079. kBytes
   one-center:        146. kBytes
   wavefun   :      20757. kBytes
 
  
  
 General timing and accounting informations for this job:
 ========================================================
  
                  Total CPU time used (sec):       57.941
                            User time (sec):       55.692
                          System time (sec):        2.250
                         Elapsed time (sec):       58.787
  
                   Maximum memory used (kb):      730636.
                   Average memory used (kb):           0.
  
                          Minor page faults:        32550
                          Major page faults:            0
                 Voluntary context switches:         1770
