 vasp.6.0.8 29Jun18 (build Mar 14 2019 11:44:20) complex                        
  
 executed on             LinuxIFC date 2021.03.15  00:48:03
 running   64 mpi-ranks, with    1 threads/rank
 distrk:  each k-point on   16 cores,    4 groups
 distr:  one band on NCORES_PER_BAND=   4 cores,    4 groups


--------------------------------------------------------------------------------------------------------


 INCAR:
 POTCAR:    PAW_PBE Ge 05Jan2001                  
 POTCAR:    PAW_PBE Sb 06Sep2000                  
 POTCAR:    PAW_PBE Te 08Apr2002                  
 POTCAR:    PAW_PBE Ge 05Jan2001                  
   VRHFIN =Ge: s2p2                                                             
   LEXCH  = PE                                                                  
   EATOM  =   104.9960 eV,    7.7170 Ry                                         
                                                                                
   TITEL  = PAW_PBE Ge 05Jan2001                                                
   LULTRA =        F    use ultrasoft PP ?                                      
   IUNSCR =        1    unscreen: 0-lin 1-nonlin 2-no                           
   RPACOR =    2.170    partial core radius                                     
   POMASS =   72.610; ZVAL   =    4.000    mass and valenz                      
   RCORE  =    2.300    outmost cutoff radius                                   
   RWIGS  =    2.300; RWIGS  =    1.217    wigner-seitz radius (au A)           
   ENMAX  =  173.807; ENMIN  =  130.355 eV                                      
   ICORE  =        3    local potential                                         
   LCOR   =        T    correct aug charges                                     
   LPAW   =        T    paw PP                                                  
   EAUG   =  385.843                                                            
   DEXC   =    0.000                                                            
   RMAX   =    2.342    core radius for proj-oper                               
   RAUG   =    1.300    factor for augmentation sphere                          
   RDEP   =    2.318    radius for radial grids                                 
   RDEPT  =    2.103    core radius for aug-charge                              
                                                                                
   Atomic configuration                                                         
   10 entries                                                                   
     n  l   j            E        occ.                                          
     1  0  0.50    -10959.8463   2.0000                                         
     2  0  0.50     -1371.6056   2.0000                                         
     2  1  1.50     -1198.4791   6.0000                                         
     3  0  0.50      -168.4733   2.0000                                         
     3  1  1.50      -115.6019   6.0000                                         
     3  2  2.50       -29.3106  10.0000                                         
     4  0  0.50       -11.7309   2.0000                                         
     4  1  0.50        -3.8952   2.0000                                         
     4  2  1.50        -4.0817   0.0000                                         
     4  3  2.50        -4.0817   0.0000                                         
   Description                                                                  
     l       E           TYP  RCUT    TYP  RCUT                                 
     0    -11.7309493     23  2.300                                             
     0     -7.4578696     23  2.300                                             
     1     -3.8952261     23  2.300                                             
     1      6.1178114     23  2.300                                             
     2     -4.0817478     23  2.300                                             
     3     -1.3605826      7  2.300                                             
  local pseudopotential read in
  partial core-charges read in
  partial kinetic energy density read in
  atomic valenz-charges read in
  non local Contribution for L=           0  read in
    real space projection operators read in
  non local Contribution for L=           0  read in
    real space projection operators read in
  non local Contribution for L=           1  read in
    real space projection operators read in
  non local Contribution for L=           1  read in
    real space projection operators read in
  non local Contribution for L=           2  read in
    real space projection operators read in
    PAW grid and wavefunctions read in
 
   number of l-projection  operators is LMAX  =           5
   number of lm-projection operators is LMMAX =          13
 
 POTCAR:    PAW_PBE Sb 06Sep2000                  
   VRHFIN =Sb: s2p3                                                             
   LEXCH  = PE                                                                  
   EATOM  =   149.9515 eV,   11.0211 Ry                                         
                                                                                
   TITEL  = PAW_PBE Sb 06Sep2000                                                
   LULTRA =        F    use ultrasoft PP ?                                      
   IUNSCR =        1    unscreen: 0-lin 1-nonlin 2-no                           
   RPACOR =    2.200    partial core radius                                     
   POMASS =  121.750; ZVAL   =    5.000    mass and valenz                      
   RCORE  =    2.300    outmost cutoff radius                                   
   RWIGS  =    2.980; RWIGS  =    1.577    wigner-seitz radius (au A)           
   ENMAX  =  172.069; ENMIN  =  129.052 eV                                      
   ICORE  =        3    local potential                                         
   LCOR   =        T    correct aug charges                                     
   LPAW   =        T    paw PP                                                  
   EAUG   =  380.513                                                            
   DEXC   =    0.000                                                            
   RMAX   =    2.346    core radius for proj-oper                               
   RAUG   =    1.300    factor for augmentation sphere                          
   RDEP   =    2.360    radius for radial grids                                 
   RDEPT  =    2.192    core radius for aug-charge                              
                                                                                
   Atomic configuration                                                         
   13 entries                                                                   
     n  l   j            E        occ.                                          
     1  0  0.50    -30298.2797   2.0000                                         
     2  0  0.50     -4610.2252   2.0000                                         
     2  1  1.50     -4138.3407   6.0000                                         
     3  0  0.50      -903.8815   2.0000                                         
     3  1  1.50      -750.1337   6.0000                                         
     3  2  2.50      -515.7092  10.0000                                         
     4  0  0.50      -148.8034   2.0000                                         
     4  1  1.50      -101.7581   6.0000                                         
     4  2  2.50       -33.5048  10.0000                                         
     5  0  0.50       -12.8298   2.0000                                         
     5  1  0.50        -4.8276   3.0000                                         
     5  2  1.50        -4.0817   0.0000                                         
     4  3  2.50        -4.0817   0.0000                                         
   Description                                                                  
     l       E           TYP  RCUT    TYP  RCUT                                 
     0    -12.8297861     23  2.300                                             
     0     13.6058260     23  2.300                                             
     1     -4.8275512     23  2.300                                             
     1     -0.7245443     23  2.300                                             
     2     -4.0817478     23  2.300                                             
     3     -1.3605826     23  2.300                                             
  local pseudopotential read in
  partial core-charges read in
  partial kinetic energy density read in
  atomic valenz-charges read in
  non local Contribution for L=           0  read in
    real space projection operators read in
  non local Contribution for L=           0  read in
    real space projection operators read in
  non local Contribution for L=           1  read in
    real space projection operators read in
  non local Contribution for L=           1  read in
    real space projection operators read in
  non local Contribution for L=           2  read in
    real space projection operators read in
    PAW grid and wavefunctions read in
 
   number of l-projection  operators is LMAX  =           5
   number of lm-projection operators is LMMAX =          13
 
 POTCAR:    PAW_PBE Te 08Apr2002                  
   VRHFIN =Te: s2p4                                                             
   LEXCH  = PE                                                                  
   EATOM  =   223.2721 eV,   16.4100 Ry                                         
                                                                                
   TITEL  = PAW_PBE Te 08Apr2002                                                
   LULTRA =        F    use ultrasoft PP ?                                      
   IUNSCR =        1    unscreen: 0-lin 1-nonlin 2-no                           
   RPACOR =    2.200    partial core radius                                     
   POMASS =  127.600; ZVAL   =    6.000    mass and valenz                      
   RCORE  =    2.300    outmost cutoff radius                                   
   RWIGS  =    2.900; RWIGS  =    1.535    wigner-seitz radius (au A)           
   ENMAX  =  174.982; ENMIN  =  131.236 eV                                      
   ICORE  =        3    local potential                                         
   LCOR   =        T    correct aug charges                                     
   LPAW   =        T    paw PP                                                  
   EAUG   =  368.792                                                            
   DEXC   =    0.000                                                            
   RMAX   =    2.345    core radius for proj-oper                               
   RAUG   =    1.300    factor for augmentation sphere                          
   RDEP   =    2.397    radius for radial grids                                 
   RDEPT  =    2.174    core radius for aug-charge                              
                                                                                
   Atomic configuration                                                         
   13 entries                                                                   
     n  l   j            E        occ.                                          
     1  0  0.50    -31621.2075   2.0000                                         
     2  0  0.50     -4848.7941   2.0000                                         
     2  1  1.50     -4352.1960   6.0000                                         
     3  0  0.50      -964.9612   2.0000                                         
     3  1  1.50      -803.6179   6.0000                                         
     3  2  2.50      -559.8710  10.0000                                         
     4  0  0.50      -164.3522   2.0000                                         
     4  1  1.50      -114.3756   6.0000                                         
     4  2  2.50       -41.6483  10.0000                                         
     5  0  0.50       -15.1072   2.0000                                         
     5  1  0.50        -5.9526   4.0000                                         
     5  2  1.50        -5.4423   0.0000                                         
     4  3  2.50        -5.4423   0.0000                                         
   Description                                                                  
     l       E           TYP  RCUT    TYP  RCUT                                 
     0    -15.1072389     23  2.300                                             
     0    -16.4678215     23  2.300                                             
     1     -5.9526306     23  2.300                                             
     1     -2.4873968     23  2.300                                             
     2     -5.4423304     23  2.300                                             
     3     -1.3605826     23  2.300                                             
  local pseudopotential read in
  partial core-charges read in
  partial kinetic energy density read in
  atomic valenz-charges read in
  non local Contribution for L=           0  read in
    real space projection operators read in
  non local Contribution for L=           0  read in
    real space projection operators read in
  non local Contribution for L=           1  read in
    real space projection operators read in
  non local Contribution for L=           1  read in
    real space projection operators read in
  non local Contribution for L=           2  read in
    real space projection operators read in
    PAW grid and wavefunctions read in
 
   number of l-projection  operators is LMAX  =           5
   number of lm-projection operators is LMMAX =          13
 
 Optimization of the real space projectors (new method)

 maximal supplied QI-value         = 16.25
 optimisation between [QCUT,QGAM] = [  7.96, 16.09] = [ 17.76, 72.49] Ry 
 Optimized for a Real-space Cutoff    1.55 Angstroem

   l    n(q)    QCUT    max X(q) W(low)/X(q) W(high)/X(q)  e(spline) 
   0      7     7.963    65.336    0.33E-03    0.23E-03    0.68E-07
   0      7     7.963    52.220    0.32E-03    0.23E-03    0.67E-07
   1      7     7.963    36.409    0.30E-03    0.33E-04    0.20E-06
   1      7     7.963    21.334    0.30E-03    0.34E-04    0.20E-06
   2      6     7.963     4.673    0.38E-03    0.24E-03    0.57E-07
 Optimization of the real space projectors (new method)

 maximal supplied QI-value         = 16.25
 optimisation between [QCUT,QGAM] = [  7.96, 16.09] = [ 17.76, 72.49] Ry 
 Optimized for a Real-space Cutoff    1.55 Angstroem

   l    n(q)    QCUT    max X(q) W(low)/X(q) W(high)/X(q)  e(spline) 
   0      7     7.963    19.000    0.32E-03    0.28E-03    0.63E-07
   0      7     7.963     9.057    0.39E-03    0.35E-03    0.76E-07
   1      7     7.963   125.345    0.39E-03    0.19E-03    0.18E-06
   1      7     7.963    79.963    0.38E-03    0.19E-03    0.18E-06
   2      6     7.963     6.963    0.32E-03    0.22E-03    0.46E-07
 Optimization of the real space projectors (new method)

 maximal supplied QI-value         = 16.25
 optimisation between [QCUT,QGAM] = [  7.96, 16.09] = [ 17.76, 72.49] Ry 
 Optimized for a Real-space Cutoff    1.55 Angstroem

   l    n(q)    QCUT    max X(q) W(low)/X(q) W(high)/X(q)  e(spline) 
   0      7     7.963   224.858    0.39E-03    0.38E-03    0.70E-07
   0      7     7.963   205.313    0.39E-03    0.38E-03    0.71E-07
   1      7     7.963   119.695    0.39E-03    0.18E-03    0.18E-06
   1      7     7.963    84.282    0.39E-03    0.18E-03    0.18E-06
   2      6     7.963     5.599    0.31E-03    0.21E-03    0.46E-07
  PAW_PBE Ge 05Jan2001                  :
 energy of atom  1       EATOM= -104.9960
 kinetic energy error for atom=    0.0013 (will be added to EATOM!!)
  PAW_PBE Sb 06Sep2000                  :
 energy of atom  2       EATOM= -149.9515
 kinetic energy error for atom=    0.0023 (will be added to EATOM!!)
  PAW_PBE Te 08Apr2002                  :
 energy of atom  3       EATOM= -223.2721
 kinetic energy error for atom=    0.0032 (will be added to EATOM!!)
 
 
 POSCAR: Ge Sb Te
  positions in direct lattice
  No initial velocities read in
 exchange correlation table for  LEXCH =        8
   RHO(1)=    0.500       N(1)  =     2000
   RHO(2)=  100.500       N(2)  =     4000
 


--------------------------------------------------------------------------------------------------------


 ion  position               nearest neighbor table
   1  0.753  0.423  0.861-  89 2.87  82 2.93  94 2.97  86 3.00 125 3.14
   2  0.271  0.200  0.401-  66 2.84  90 2.84  92 2.89 115 3.20
   3  0.535  0.601  0.388- 113 2.66  97 2.67 138 2.70  98 2.72
   4  0.933  0.557  0.583- 108 2.71 133 2.75 106 2.84  58 2.92  86 3.13
   5  0.141  0.527  0.684- 127 2.70 100 2.71 108 2.75  54 2.76
   6  0.559  0.308  0.323-  80 2.76 120 2.88  95 2.88  39 3.31
   7  0.567  0.607  0.818-  99 2.72 131 2.79 104 2.83  44 3.16
   8  0.783  0.174  0.678- 126 2.74  30 2.78  81 2.86  89 2.88  96 3.22
   9  0.383  0.580  0.228- 119 2.81  97 2.82  75 2.93 120 3.20
  10  0.850  0.853  0.187-  87 2.87  72 2.90 109 2.98 101 3.04 107 3.20
  11  0.122  0.712  0.559- 106 2.79 108 2.85 117 2.97 127 3.04
  12  0.874  0.088  0.076-  71 2.62 140 2.62 107 2.65 139 2.72
  13  0.282  0.342  0.219- 120 2.83  73 2.85 115 2.95 119 3.06  90 3.19
  14  0.164  0.710  0.869-  65 2.67 100 2.73 136 2.74  38 2.77
  15  0.397  0.410  0.437-  95 2.78 138 2.82 112 2.95 120 3.18
  16  0.919  0.246  0.525-  81 2.76 126 2.81 133 3.01  77 3.12
  17  0.438  0.353  0.082- 105 2.78  73 2.79  91 3.00 120 3.03
  18  0.820  0.287  0.016- 130 2.85  94 2.91  82 2.92 140 3.09 139 3.14
  19  0.993  0.771  0.311- 109 2.65  83 2.69  87 2.73  57 2.81
  20  0.969  0.533  0.822-  88 2.78  86 2.84  82 3.01 108 3.19
  21  0.227  0.499  0.068-  31 2.61 143 2.68 119 2.72  73 2.74
  22  0.170  0.153  0.206- 123 2.66  74 2.67  92 2.68 115 2.72
  23  0.605  0.758  0.958-  68 2.75  99 2.78 101 2.93 104 3.01  64 3.19
  24  0.961  0.020  0.597- 111 2.73  77 2.80  81 2.96 117 3.13
  25  0.166  0.686  0.188-  75 2.79  83 2.80  76 2.81 119 3.17
  26  0.894  0.746  0.759- 102 2.77  88 2.81 134 2.95 108 3.15
  27  0.887  0.359  0.705-  86 2.80 126 2.81 133 2.99  89 3.06
  28  0.321  0.907  0.804- 129 2.75 136 2.93  84 2.95 132 3.09
  29  0.596  0.278  0.550-  96 2.78  67 2.81  95 3.02 126 3.23
  30  0.742  0.078  0.551- 116 2.76  77 2.78   8 2.78  67 2.94 111 3.03
  31  0.320  0.550  0.956-  21 2.61  65 2.71 105 2.80 114 2.81 100 3.28
  32  0.206  0.343  0.559-  66 2.72 112 2.73  54 2.77  90 2.81
  33  0.733  0.157  0.232- 139 2.93 118 2.95  71 2.98  80 3.12 130 3.43  67 3.63
  34  0.330  0.661  0.722- 136 2.91 127 2.93 144 2.94 114 3.36 104 3.42
  35  0.289  0.956  0.089-  84 2.92  56 2.95  52 3.03  74 3.23 122 3.28
  36  0.578  0.057  0.375-  67 2.94  70 3.04 116 3.06 118 3.11  80 3.13
  37  0.230  0.354  0.813-  85 2.85  79 2.86  54 3.02 114 3.44 100 3.56
  38  0.036  0.794  0.928-  14 2.77 102 2.89  88 2.92  76 3.30  84 3.68
  39  0.693  0.405  0.218- 130 2.86  50 2.91  48 3.00   6 3.31
  40  0.490  0.133  0.018-  69 2.87  56 2.93  91 2.99 124 3.58
  41  0.596  0.785  0.202-  68 2.94 101 3.00 113 3.01  78 3.13 124 3.36  72 3.38
  42  0.566  0.609  0.606- 131 2.86  98 2.89 144 2.90 138 3.59
  43  0.549  0.826  0.725- 104 2.86 132 2.94 144 3.08 131 3.19  64 3.47
  44  0.521  0.441  0.891- 114 2.88 125 2.96  91 3.01 105 3.15   7 3.16  94 3.36
  45  0.059  0.319  0.321- 123 2.84  90 2.96 135 2.99  92 3.45 137 3.72
  46  0.458  0.912  0.525-  70 2.83 132 2.97 121 3.02  78 3.24 116 3.43 144 3.43
  47  0.345  0.795  0.337-  78 2.88  75 2.97 122 3.02  97 3.18 121 3.20  83 3.39
  48  0.669  0.507  0.076-  94 2.89 110 2.99  39 3.00  99 3.16 113 3.59 105 3.72
  49  0.864  0.974  0.827- 134 2.82 111 2.94 142 2.96 102 3.16 107 3.39
  50  0.769  0.546  0.281- 137 2.90  39 2.91 110 3.03 141 3.20 113 3.34  57 3.67
  51  0.159  0.951  0.322- 122 2.87 103 2.93  92 3.11  83 3.29 109 3.42  74 3.54
  52  0.437  0.889  0.017- 124 2.84  69 3.00  35 3.03  68 3.12
  53  0.801  0.917  0.396-  72 2.93 118 3.00 116 3.08 109 3.10  77 3.25 128 3.34
  54  0.106  0.367  0.686-   5 2.76  32 2.77 133 2.93  37 3.02
  55  0.196  0.132  0.905-  79 2.87  62 2.91  93 2.92  85 3.24  56 3.33  84 3.61
  56  0.322  0.123  0.056-  40 2.93  35 2.95 115 2.96  55 3.33
  57  0.889  0.679  0.401-  19 2.81 128 2.91 106 2.96  58 3.00  72 3.07  50 3.67
  58  0.781  0.616  0.526- 141 2.89   4 2.92  57 3.00  98 3.11 128 3.40
  59  0.617  0.245  0.812- 125 2.87  96 2.91  89 2.98  91 3.33 142 3.52
  60  0.388  0.232  0.620- 112 2.89  66 2.90  85 3.05  95 3.19
  61  0.958  0.449  0.103- 110 2.93 143 2.95  82 3.04 135 3.12 130 3.24
  62  0.068  0.034  0.964-  55 2.91  74 2.96 140 3.03  84 3.12  93 3.52 107 3.62
  63  0.692  0.948  0.046- 101 2.95 124 2.96  64 2.99 139 3.25 107 3.29
  64  0.626  0.929  0.883- 142 2.87 134 2.99  63 2.99  23 3.19  69 3.36  43 3.47
  65  0.291  0.707  0.962-  14 2.67  31 2.71 104 3.64  75 3.68
  66  0.234  0.185  0.563-  32 2.72   2 2.84  60 2.90
  67  0.674  0.188  0.436-  29 2.81  30 2.94  36 2.94  33 3.63
  68  0.497  0.724  0.073-  23 2.75  41 2.94  52 3.12  75 3.41
  69  0.450  0.020  0.898-  40 2.87  52 3.00  64 3.36 132 3.62
  70  0.420  0.061  0.460-  46 2.83  36 3.04  95 3.36
  71  0.903  0.114  0.225-  12 2.62  33 2.98 109 3.62
  72  0.763  0.772  0.310-  10 2.90  53 2.93  57 3.07  41 3.38
  73  0.276  0.346  0.051-  21 2.74  17 2.79  13 2.85 123 3.65
  74  0.116  0.025  0.132-  22 2.67  62 2.96  35 3.23  51 3.54  76 3.61
  75  0.323  0.733  0.175-  25 2.79   9 2.93  47 2.97  68 3.41  65 3.68
  76  0.091  0.814  0.114-  25 2.81  87 2.86  38 3.30  74 3.61
  77  0.881  0.077  0.464-  30 2.78  24 2.80  16 3.12  53 3.25
  78  0.508  0.842  0.354-  47 2.88  41 3.13  46 3.24
  79  0.116  0.281  0.914-  37 2.86  55 2.87 140 3.37
  80  0.550  0.172  0.233-   6 2.76  33 3.12  36 3.13
  81  0.952  0.178  0.669-  16 2.76   8 2.86  24 2.96  93 3.62
  82  0.908  0.411  0.935-  18 2.92   1 2.93  20 3.01  61 3.04
  83  0.149  0.757  0.335-  19 2.69  25 2.80  51 3.29  47 3.39
  84  0.212  0.922  0.939-  35 2.92  28 2.95  62 3.12  55 3.61  38 3.68
  85  0.319  0.214  0.785-  37 2.85  60 3.05  55 3.24  91 3.49
  86  0.830  0.512  0.729-  27 2.80  20 2.84   1 3.00   4 3.13
  87  0.957  0.724  0.162-  19 2.73  76 2.86  10 2.87 110 3.51
  88  0.922  0.668  0.903-  20 2.78  26 2.81  38 2.92
  89  0.791  0.263  0.823-   1 2.87   8 2.88  59 2.98  27 3.06 142 3.56
  90  0.213  0.357  0.394-  32 2.81   2 2.84  45 2.96  13 3.19
  91  0.458  0.278  0.922-  40 2.99  17 3.00  44 3.01  59 3.33  85 3.49
  92  0.123  0.128  0.355-  22 2.68   2 2.89  51 3.11  45 3.45
  93  0.112  0.075  0.766- 129 2.82  55 2.92  62 3.52  81 3.62
  94  0.665  0.356  0.997-  48 2.89  18 2.91   1 2.97  44 3.36
  95  0.454  0.256  0.445-  15 2.78   6 2.88  29 3.02  60 3.19  70 3.36
  96  0.595  0.160  0.664-  29 2.78  59 2.91   8 3.22
  97  0.378  0.619  0.390-   3 2.67   9 2.82  47 3.18
  98  0.626  0.701  0.475-   3 2.72  42 2.89  58 3.11
  99  0.684  0.618  0.927-   7 2.72  23 2.78  48 3.16
 100  0.164  0.552  0.840-   5 2.71  14 2.73  31 3.28 143 3.54  37 3.56
 101  0.725  0.781  0.080-  23 2.93  63 2.95  41 3.00  10 3.04
 102  0.006  0.864  0.776-  26 2.77  38 2.89  49 3.16
 103  0.186  0.957  0.493- 121 2.83  51 2.93 117 3.19
 104  0.469  0.739  0.846-   7 2.83  43 2.86  23 3.01  34 3.42  65 3.64
 105  0.451  0.513  0.048-  17 2.78  31 2.80  44 3.15  48 3.72
 106  0.037  0.608  0.463-  11 2.79   4 2.84  57 2.96
 107  0.885  0.941  0.023-  12 2.65  10 3.20  63 3.29  49 3.39  62 3.62
 108  0.027  0.643  0.680-   4 2.71   5 2.75  11 2.85  26 3.15  20 3.19
 109  0.959  0.924  0.305-  19 2.65  10 2.98  53 3.10  51 3.42  71 3.62
 110  0.831  0.566  0.114-  61 2.93  48 2.99  50 3.03  87 3.51
 111  0.824  0.961  0.658-  24 2.73  49 2.94  30 3.03
 112  0.351  0.398  0.605-  32 2.73  60 2.89  15 2.95
 113  0.587  0.612  0.241-   3 2.66  41 3.01  50 3.34  48 3.59
 114  0.379  0.491  0.813-  31 2.81  44 2.88  34 3.36  37 3.44
 115  0.328  0.175  0.223-  22 2.72  13 2.95  56 2.96   2 3.20
 116  0.655  0.951  0.499-  30 2.76  36 3.06  53 3.08  46 3.43
 117  0.031  0.860  0.537- 128 2.87  11 2.97  24 3.13 103 3.19
 118  0.707  0.988  0.264-  33 2.95  53 3.00  36 3.11 124 3.68
 119  0.231  0.515  0.227-  21 2.72   9 2.81  13 3.06  25 3.17 135 3.44
 120  0.435  0.401  0.254-  13 2.83   6 2.88  17 3.03  15 3.18   9 3.20
 121  0.298  0.835  0.516- 103 2.83  46 3.02  47 3.20 144 3.45
 122  0.322  0.962  0.280-  51 2.87  47 3.02  35 3.28
 123  0.101  0.287  0.162-  22 2.66  45 2.84  73 3.65
 124  0.539  0.961  0.129-  52 2.84  63 2.96  41 3.36  40 3.58 118 3.68
 125  0.609  0.400  0.746-  59 2.87  44 2.96   1 3.14
 126  0.780  0.309  0.590-   8 2.74  27 2.81  16 2.81  29 3.23 141 3.64
 127  0.250  0.589  0.587-   5 2.70  34 2.93  11 3.04
 128  0.876  0.793  0.529- 117 2.87  57 2.91  53 3.34  58 3.40
 129  0.256  0.018  0.706-  28 2.75  93 2.82 132 3.45
 130  0.835  0.324  0.179-  18 2.85  39 2.86  61 3.24  33 3.43
 131  0.671  0.683  0.715-   7 2.79  42 2.86  43 3.19
 132  0.452  0.965  0.691-  43 2.94  46 2.97  28 3.09 129 3.45  69 3.62
 133  0.986  0.405  0.566-   4 2.75  54 2.93  27 2.99  16 3.01
 134  0.770  0.837  0.841-  49 2.82  26 2.95  64 2.99
 135  0.034  0.484  0.267- 137 2.91  45 2.99  61 3.12 119 3.44
 136  0.215  0.788  0.737-  14 2.74  34 2.91  28 2.93
 137  0.892  0.456  0.358-  50 2.90 135 2.91 141 2.99  45 3.72
 138  0.554  0.459  0.457-   3 2.70  15 2.82 141 3.19  42 3.59
 139  0.722  0.137  0.061-  12 2.72  33 2.93  18 3.14  63 3.25
 140  0.962  0.177  0.985-  12 2.62  62 3.03  18 3.09  79 3.37
 141  0.742  0.468  0.450-  58 2.89 137 2.99 138 3.19  50 3.20 126 3.64
 142  0.718  0.068  0.851-  64 2.87  49 2.96  59 3.52  89 3.56
 143  0.082  0.548  0.032-  21 2.68  61 2.95 100 3.54
 144  0.444  0.730  0.612-  42 2.90  34 2.94  43 3.08  46 3.43 121 3.45
 
  LATTYP: Found a simple monoclinic cell.
 ALAT       =    23.9738290960
 B/A-ratio  =     0.7070584733
 C/A-ratio  =     1.5809978703
 COS(beta)  =    -0.9486652895
  
  Lattice vectors:
  
 A1 = ( -16.9541140000,   0.0000000000, -16.9500000000)
 A2 = (   0.0000000000, -16.9508990000,   0.0000000000)
 A3 = (  16.9527290000,   0.0000000000,  33.9000000000)


Analysis of symmetry for initial positions (statically):
=====================================================================
 Subroutine PRICEL returns:
 Original cell was already a primitive cell.
 

 Routine SETGRP: Setting up the symmetry group for a 
 simple monoclinic supercell.


 Subroutine GETGRP returns: Found  1 space group operations
 (whereof  1 operations were pure point group operations)
 out of a pool of  4 trial point group operations.


The static configuration has the point symmetry C_1 .


Analysis of symmetry for dynamics (positions and initial velocities):
=====================================================================
 Subroutine PRICEL returns:
 Original cell was already a primitive cell.
 

 Routine SETGRP: Setting up the symmetry group for a 
 simple monoclinic supercell.


 Subroutine GETGRP returns: Found  1 space group operations
 (whereof  1 operations were pure point group operations)
 out of a pool of  4 trial point group operations.


The dynamic configuration has the point symmetry C_1 .


 Subroutine INISYM returns: Found  1 space group operations
 (whereof  1 operations are pure point group operations),
 and found     1 'primitive' translations


----------------------------------------------------------------------------------------

                                     Primitive cell                                     

  volume of cell :    4871.6156

  direct lattice vectors                    reciprocal lattice vectors
    16.955499000  0.000000000  0.000000000     0.058977916  0.000000000  0.000004819
     0.000000000 16.950899000  0.000000000     0.000000000  0.058993921  0.000000000
    -0.001385000  0.000000000 16.950000000     0.000000000  0.000000000  0.058997050

  length of vectors
    16.955499000 16.950899000 16.950000057     0.058977916  0.058993921  0.058997050

  position of ions in fractional coordinates (direct lattice)
     0.752658035  0.423061337  0.861056047
     0.271176640  0.199572306  0.400901475
     0.535053409  0.601277844  0.388115044
     0.932683104  0.557496685  0.582989381
     0.140550692  0.526801558  0.683840708
     0.559238441  0.307755949  0.322617109
     0.566876408  0.606663989  0.817592920
     0.783335223  0.173924109  0.678401180
     0.383467695  0.580164509  0.228240708
     0.850335249  0.852751232  0.186617109
     0.121610954  0.711566979  0.559135693
     0.873604761  0.088155796  0.075555162
     0.282204253  0.342230226  0.219443068
     0.163741800  0.710039037  0.869262537
     0.396687569  0.409639630  0.437314454
     0.918865729  0.246361565  0.524867847
     0.438268022  0.352884528  0.081599410
     0.820454895  0.286816646  0.015988732
     0.993225299  0.771457608  0.310873746
     0.968525798  0.533316257  0.821799410
     0.227212653  0.498724581  0.067806490
     0.170293718  0.153234941  0.205756932
     0.605026525  0.758101384  0.957864307
     0.961135187  0.019929975  0.596902655
     0.166438036  0.686447368  0.187686136
     0.894220277  0.746396991  0.758855457
     0.887285972  0.359282419  0.704991150
     0.320522794  0.907397301  0.804265487
     0.595810379  0.277930392  0.550391150
     0.741910552  0.078390533  0.551349853
     0.319652270  0.549916556  0.955775811
     0.206239528  0.343363499  0.558927434
     0.733061370  0.157120870  0.232007670
     0.329945488  0.660897101  0.722306785
     0.288730153  0.956031890  0.089402950
     0.577988816  0.056545850  0.374584071
     0.229816063  0.353934030  0.813020649
     0.036402847  0.794317753  0.928117994
     0.692972974  0.405218036  0.218455457
     0.490082576  0.133288506  0.017784425
     0.596271415  0.785197292  0.201718584
     0.565752096  0.609224325  0.605852507
     0.548891796  0.825555034  0.725126844
     0.520994642  0.441338834  0.891067847
     0.059020076  0.318506411  0.321181711
     0.458485854  0.912164010  0.524500295
     0.345355628  0.795285253  0.337185251
     0.669134260  0.507279879  0.076008850
     0.863687072  0.973576682  0.826926254
     0.768593628  0.546116758  0.280504425
     0.158637412  0.950840424  0.322374631
     0.437421689  0.889227173  0.016617699
     0.801052683  0.916854026  0.395646608
     0.105678969  0.367478445  0.685669617
     0.195770351  0.131628417  0.905404130
     0.321773909  0.123290216  0.055736932
     0.889384351  0.679320902  0.401064307
     0.781034422  0.616333092  0.525892035
     0.616810179  0.244642482  0.811817109
     0.388326433  0.231900975  0.619817109
     0.957821591  0.448836961  0.103266667
     0.067701669  0.033764522  0.964324484
     0.692304226  0.948185698  0.045931976
     0.626022483  0.929372537  0.883457227
     0.291214198  0.706983152  0.961764012
     0.233603292  0.185126464  0.563448378
     0.673651846  0.187676772  0.435525664
     0.496617734  0.724126785  0.073284956
     0.450150347  0.020150200  0.898017699
     0.420429809  0.061205013  0.460074336
     0.903259255  0.114014012  0.224831858
     0.763264398  0.771504803  0.309558702
     0.276449620  0.345721487  0.051443658
     0.116440242  0.024772845  0.131697935
     0.323386077  0.733382931  0.174951622
     0.091002805  0.814163308  0.114056047
     0.880861315  0.077002996  0.464365782
     0.507625287  0.841689871  0.353827139
     0.116127850  0.280749711  0.913823009
     0.549826542  0.171873480  0.233489086
     0.951704607  0.178411776  0.668967552
     0.908318628  0.410813609  0.935439528
     0.149044546  0.757499646  0.335490265
     0.211777358  0.921992397  0.939191740
     0.319091565  0.214249993  0.784631268
     0.830049897  0.512325629  0.729380531
     0.956729375  0.723536846  0.161699705
     0.921621373  0.668342133  0.902719764
     0.791214702  0.262841517  0.823174041
     0.213057464  0.356679017  0.393953982
     0.457948023  0.278289665  0.922200590
     0.123344704  0.128215029  0.354513864
     0.111777940  0.075175364  0.765887906
     0.664762561  0.356062531  0.997067847
     0.453509295  0.256231838  0.445057227
     0.594663711  0.159635191  0.664230088
     0.378456595  0.618633855  0.390188791
     0.626372505  0.700535116  0.475369912
     0.684095657  0.618008520  0.926513274
     0.164393472  0.551640358  0.839958702
     0.725116463  0.780690157  0.080482596
     0.005937423  0.864325839  0.775646018
     0.186368595  0.956763414  0.492792920
     0.468840905  0.738916561  0.845840708
     0.451469247  0.512569274  0.047912625
     0.036936079  0.608469203  0.462569322
     0.884605763  0.941224415  0.023201003
     0.026983750  0.642656180  0.680106195
     0.959359668  0.924127977  0.304611209
     0.831332562  0.565735186  0.114383481
     0.824441197  0.961246952  0.658401180
     0.350809957  0.397682152  0.604967552
     0.586977315  0.611938045  0.240630088
     0.379033110  0.491341492  0.812648968
     0.328455577  0.174669792  0.222537463
     0.655409266  0.951046903  0.499030678
     0.031291246  0.860320152  0.536963422
     0.706759816  0.987929903  0.263791150
     0.231052757  0.515303643  0.227291445
     0.434989936  0.400552797  0.253733923
     0.298344173  0.834840677  0.515763422
     0.321862383  0.962497623  0.279651917
     0.101424013  0.287409535  0.162277286
     0.538931859  0.960645214  0.128956342
     0.609355902  0.400474925  0.746129794
     0.779630047  0.309188321  0.589519764
     0.250139056  0.589433634  0.586657227
     0.876000922  0.793149673  0.529061947
     0.255740475  0.018403626  0.705675516
     0.835136048  0.323730323  0.179372271
     0.670843760  0.682954928  0.715303835
     0.451604968  0.965323432  0.691392330
     0.986381135  0.405311246  0.566322124
     0.769759977  0.836669489  0.840808260
     0.034440033  0.484337143  0.267114454
     0.215473506  0.787557049  0.737050147
     0.891910981  0.456002363  0.357936873
     0.554246898  0.459176826  0.456844248
     0.721747227  0.137026361  0.060923894
     0.962187204  0.176838408  0.984961652
     0.741919999  0.468387547  0.450400590
     0.718408767  0.067798174  0.851362832
     0.081601478  0.548192754  0.031609440
     0.444325875  0.729860994  0.611504425

  ion indices of the primitive-cell ions
   primitive index   ion index
                 1           1
                 2           2
                 3           3
                 4           4
                 5           5
                 6           6
                 7           7
                 8           8
                 9           9
                10          10
                11          11
                12          12
                13          13
                14          14
                15          15
                16          16
                17          17
                18          18
                19          19
                20          20
                21          21
                22          22
                23          23
                24          24
                25          25
                26          26
                27          27
                28          28
                29          29
                30          30
                31          31
                32          32
                33          33
                34          34
                35          35
                36          36
                37          37
                38          38
                39          39
                40          40
                41          41
                42          42
                43          43
                44          44
                45          45
                46          46
                47          47
                48          48
                49          49
                50          50
                51          51
                52          52
                53          53
                54          54
                55          55
                56          56
                57          57
                58          58
                59          59
                60          60
                61          61
                62          62
                63          63
                64          64
                65          65
                66          66
                67          67
                68          68
                69          69
                70          70
                71          71
                72          72
                73          73
                74          74
                75          75
                76          76
                77          77
                78          78
                79          79
                80          80
                81          81
                82          82
                83          83
                84          84
                85          85
                86          86
                87          87
                88          88
                89          89
                90          90
                91          91
                92          92
                93          93
                94          94
                95          95
                96          96
                97          97
                98          98
                99          99
               100         100
               101         101
               102         102
               103         103
               104         104
               105         105
               106         106
               107         107
               108         108
               109         109
               110         110
               111         111
               112         112
               113         113
               114         114
               115         115
               116         116
               117         117
               118         118
               119         119
               120         120
               121         121
               122         122
               123         123
               124         124
               125         125
               126         126
               127         127
               128         128
               129         129
               130         130
               131         131
               132         132
               133         133
               134         134
               135         135
               136         136
               137         137
               138         138
               139         139
               140         140
               141         141
               142         142
               143         143
               144         144

----------------------------------------------------------------------------------------

 
 

Automatic generation of k-mesh.
 generate k-points for:    2    2    2
Space group operators:
 irot       det(A)        alpha          n_x          n_y          n_z        tau_x        tau_y        tau_z
    1     1.000000     0.000001     1.000000     0.000000     0.000000     0.000000     0.000000     0.000000
 
 Subroutine IBZKPT returns following result:
 ===========================================
 
 Found      4 irreducible k-points:
 
 Following reciprocal coordinates:
            Coordinates               Weight
  0.250000  0.250000  0.250000      2.000000
 -0.250000  0.250000 -0.250000      2.000000
 -0.250000  0.250000  0.250000      2.000000
  0.250000  0.250000 -0.250000      2.000000
 
 Following cartesian coordinates:
            Coordinates               Weight
  0.014744  0.014748  0.014750      2.000000
 -0.014744  0.014748 -0.014750      2.000000
 -0.014744  0.014748  0.014748      2.000000
  0.014744  0.014748 -0.014748      2.000000
 


--------------------------------------------------------------------------------------------------------




 Dimension of arrays:
   k-points           NKPTS =      4   k-points in BZ     NKDIM =      4   number of bands    NBANDS=    460
   number of dos      NEDOS =    301   number of ions     NIONS =    144
   non local maximal  LDIM  =      5   non local SUM 2l+1 LMDIM =     13
   total plane-waves  NPLWV = 343000
   max r-space proj   IRMAX =   1151   max aug-charges    IRDMAX=   4294
   dimension x,y,z NGX =    70 NGY =   70 NGZ =   70
   dimension x,y,z NGXF=   140 NGYF=  140 NGZF=  140
   support grid    NGXF=   140 NGYF=  140 NGZF=  140
   ions per type =              32  32  80
   NGX,Y,Z   is equivalent  to a cutoff of   6.86,  6.87,  6.87 a.u.
   NGXF,Y,Z  is equivalent  to a cutoff of  13.73, 13.73, 13.73 a.u.

 SYSTEM =  unknown system                          
 POSCAR =  Ge Sb Te                                

 Startparameter for this run:
   NWRITE =      2    write-flag & timer
   PREC   = normal    normal or accurate (medium, high low for compatibility)
   ISTART =      0    job   : 0-new  1-cont  2-samecut
   ICHARG =      2    charge: 1-file 2-atom 10-const
   ISPIN  =      1    spin polarized calculation?
   LNONCOLLINEAR =      F non collinear calculations
   LSORBIT =      F    spin-orbit coupling
   INIWAV =      1    electr: 0-lowe 1-rand  2-diag
   LASPH  =      F    aspherical Exc in radial PAW
   METAGGA=      F    non-selfconsistent MetaGGA calc.

 Electronic Relaxation 1
   ENCUT  =  250.0 eV  18.37 Ry    4.29 a.u.  21.86 21.85 21.85*2*pi/ulx,y,z
   ENINI  =  250.0     initial cutoff
   ENAUG  =  385.8 eV  augmentation charge cutoff
   NELM   =     60;   NELMIN=  2; NELMDL=  0     # of ELM steps 
   EDIFF  = 0.1E-03   stopping-criterion for ELM
   LREAL  =      T    real-space projection
   NLSPLINE    = F    spline interpolate recip. space projectors
   LCOMPAT=      F    compatible to vasp.4.4
   GGA_COMPAT  = T    GGA compatible to vasp.4.4-vasp.4.6
   LMAXPAW     = -100 max onsite density
   LMAXMIX     =    2 max onsite mixed and CHGCAR
   VOSKOWN=      0    Vosko Wilk Nusair interpolation
   ROPT   =   -0.00050  -0.00050  -0.00050
 Ionic relaxation
   EDIFFG = 0.1E-02   stopping-criterion for IOM
   NSW    =      0    number of steps for IOM
   NBLOCK =      1;   KBLOCK =      1    inner block; outer block 
   IBRION =     -1    ionic relax: 0-MD 1-quasi-New 2-CG
   NFREE  =      1    steps in history (QN), initial steepest desc. (CG)
   ISIF   =      2    stress and relaxation
   IWAVPR =     10    prediction:  0-non 1-charg 2-wave 3-comb
   ISYM   =      2    0-nonsym 1-usesym 2-fastsym
   LCORR  =      T    Harris-Foulkes like correction to forces

   POTIM  = 0.5000    time-step for ionic-motion
   TEIN   =    0.0    initial temperature
   TEBEG  =    0.0;   TEEND  =   0.0 temperature during run
   SMASS  =  -3.00    Nose mass-parameter (am)
   estimated Nose-frequenzy (Omega)   =  0.10E-29 period in steps = 0.13E+47 mass=  -0.657E-26a.u.
   SCALEE = 1.0000    scale energy and forces
   NPACO  =    256;   APACO  = 16.0  distance and # of slots for P.C.
   PSTRESS=    0.0 pullay stress

  Mass of Ions in am
   POMASS =  72.61121.75127.60
  Ionic Valenz
   ZVAL   =   4.00  5.00  6.00
  Atomic Wigner-Seitz radii
   RWIGS  =  -1.00 -1.00 -1.00
  virtual crystal weights 
   VCA    =   1.00  1.00  1.00
   NELECT =     768.0000    total number of electrons
   NUPDOWN=      -1.0000    fix difference up-down

 DOS related values:
   EMIN   =  10.00;   EMAX   =-10.00  energy-range for DOS
   EFERMI =   0.00
   ISMEAR =     0;   SIGMA  =   0.05  broadening in eV -4-tet -1-fermi 0-gaus

 Electronic relaxation 2 (details)
   IALGO  =     68    algorithm
   LDIAG  =      T    sub-space diagonalisation (order eigenvalues)
   LSUBROT=      F    optimize rotation matrix (better conditioning)
   TURBO    =      0    0=normal 1=particle mesh
   IRESTART =      0    0=no restart 2=restart with 2 vectors
   NREBOOT  =      0    no. of reboots
   NMIN     =      0    reboot dimension
   EREF     =   0.00    reference energy to select bands
   IMIX   =      4    mixing-type and parameters
     AMIX     =   0.40;   BMIX     =  1.00
     AMIX_MAG =   1.60;   BMIX_MAG =  1.00
     AMIN     =   0.10
     WC   =   100.;   INIMIX=   1;  MIXPRE=   1;  MAXMIX= -45

 Intra band minimization:
   WEIMIN = 0.0000     energy-eigenvalue tresh-hold
   EBREAK =  0.54E-07  absolut break condition
   DEPER  =   0.30     relativ break condition  

   TIME   =   0.40     timestep for ELM

  volume/ion in A,a.u.               =      33.83       228.30
  Fermi-wavevector in a.u.,A,eV,Ry     =   0.884377  1.671231 10.641431  0.782123
  Thomas-Fermi vector in A             =   2.005269
 
 Write flags
   LWAVE        =      F    write WAVECAR
   LDOWNSAMPLE  =      F    k-point downsampling of WAVECAR
   LCHARG       =      F    write CHGCAR
   LVTOT        =      F    write LOCPOT, total local potential
   LVHAR        =      F    write LOCPOT, Hartree potential only
   LELF         =      F    write electronic localiz. function (ELF)
   LORBIT       =      0    0 simple, 1 ext, 2 COOP (PROOUT), +10 PAW based schemes


 Dipole corrections
   LMONO  =      F    monopole corrections only (constant potential shift)
   LDIPOL =      F    correct potential (dipole corrections)
   IDIPOL =      0    1-x, 2-y, 3-z, 4-all directions 
   EPSILON=  1.0000000 bulk dielectric constant

 Exchange correlation treatment:
   GGA     =    --    GGA type
   LEXCH   =     8    internal setting for exchange type
   VOSKOWN=      0    Vosko Wilk Nusair interpolation
   LHFCALC =     F    Hartree Fock is set to
   LHFONE  =     F    Hartree Fock one center treatment
   AEXX    =    0.0000 exact exchange contribution

 Linear response parameters
   LEPSILON=     F    determine dielectric tensor
   LRPA    =     F    only Hartree local field effects (RPA)
   LNABLA  =     F    use nabla operator in PAW spheres
   LVEL    =     F    velocity operator in full k-point grid
   LINTERFAST=   F  fast interpolation
   KINTER  =     0    interpolate to denser k-point grid
   CSHIFT  =0.1000    complex shift for real part using Kramers Kronig
   OMEGAMAX=  -1.0    maximum frequency
   DEG_THRESHOLD= 0.2000000E-02 threshold for treating states as degnerate
   RTIME   =   -0.100 relaxation time in fs
  (WPLASMAI=    0.000 imaginary part of plasma frequency in eV, 0.658/RTIME)
   DFIELD  = 0.0000000 0.0000000 0.0000000 field for delta impulse in time
 
 Orbital magnetization related:
   ORBITALMAG=     F  switch on orbital magnetization
   LCHIMAG   =     F  perturbation theory with respect to B field
   DQ        =  0.001000  dq finite difference perturbation B field
   LLRAUG    =     F  two centre corrections for induced B field



--------------------------------------------------------------------------------------------------------


 Static calculation
 charge density and potential will be updated during run
 non-spin polarized calculation
 RMM-DIIS sequential band-by-band and
  variant of blocked Davidson during initial phase
 perform sub-space diagonalisation
    before iterative eigenvector-optimisation
 modified Broyden-mixing scheme, WC =      100.0
 initial mixing is a Kerker type mixing with AMIX =  0.4000 and BMIX =      1.0000
 Hartree-type preconditioning will be used
 using additional bands           76
 real space projection scheme for non local part
 use partial core corrections
 calculate Harris-corrections to forces 
   (improved forces if not selfconsistent)
 use gradient corrections 
 use of overlap-Matrix (Vanderbilt PP)
 Gauss-broadening in eV      SIGMA  =   0.05


--------------------------------------------------------------------------------------------------------


  energy-cutoff  :      250.00
  volume of cell :     4871.62
      direct lattice vectors                 reciprocal lattice vectors
    16.955499000  0.000000000  0.000000000     0.058977916  0.000000000  0.000004819
     0.000000000 16.950899000  0.000000000     0.000000000  0.058993921  0.000000000
    -0.001385000  0.000000000 16.950000000     0.000000000  0.000000000  0.058997050

  length of vectors
    16.955499000 16.950899000 16.950000057     0.058977916  0.058993921  0.058997050


 
 k-points in units of 2pi/SCALE and weight: read from INCAR                         
   0.01474448  0.01474848  0.01475047       0.250
  -0.01474448  0.01474848 -0.01475047       0.250
  -0.01474448  0.01474848  0.01474806       0.250
   0.01474448  0.01474848 -0.01474806       0.250
 
 k-points in reciprocal lattice and weights: read from INCAR                         
   0.25000000  0.25000000  0.25000000       0.250
  -0.25000000  0.25000000 -0.25000000       0.250
  -0.25000000  0.25000000  0.25000000       0.250
   0.25000000  0.25000000 -0.25000000       0.250
 
 position of ions in fractional coordinates (direct lattice) 
   0.75265804  0.42306134  0.86105605
   0.27117664  0.19957231  0.40090147
   0.53505341  0.60127784  0.38811504
   0.93268310  0.55749668  0.58298938
   0.14055069  0.52680156  0.68384071
   0.55923844  0.30775595  0.32261711
   0.56687641  0.60666399  0.81759292
   0.78333522  0.17392411  0.67840118
   0.38346769  0.58016451  0.22824071
   0.85033525  0.85275123  0.18661711
   0.12161095  0.71156698  0.55913569
   0.87360476  0.08815580  0.07555516
   0.28220425  0.34223023  0.21944307
   0.16374180  0.71003904  0.86926254
   0.39668757  0.40963963  0.43731445
   0.91886573  0.24636156  0.52486785
   0.43826802  0.35288453  0.08159941
   0.82045489  0.28681665  0.01598873
   0.99322530  0.77145761  0.31087375
   0.96852580  0.53331626  0.82179941
   0.22721265  0.49872458  0.06780649
   0.17029372  0.15323494  0.20575693
   0.60502653  0.75810138  0.95786431
   0.96113519  0.01992998  0.59690265
   0.16643804  0.68644737  0.18768614
   0.89422028  0.74639699  0.75885546
   0.88728597  0.35928242  0.70499115
   0.32052279  0.90739730  0.80426549
   0.59581038  0.27793039  0.55039115
   0.74191055  0.07839053  0.55134985
   0.31965227  0.54991656  0.95577581
   0.20623953  0.34336350  0.55892743
   0.73306137  0.15712087  0.23200767
   0.32994549  0.66089710  0.72230678
   0.28873015  0.95603189  0.08940295
   0.57798882  0.05654585  0.37458407
   0.22981606  0.35393403  0.81302065
   0.03640285  0.79431775  0.92811799
   0.69297297  0.40521804  0.21845546
   0.49008258  0.13328851  0.01778442
   0.59627141  0.78519729  0.20171858
   0.56575210  0.60922432  0.60585251
   0.54889180  0.82555503  0.72512684
   0.52099464  0.44133883  0.89106785
   0.05902008  0.31850641  0.32118171
   0.45848585  0.91216401  0.52450029
   0.34535563  0.79528525  0.33718525
   0.66913426  0.50727988  0.07600885
   0.86368707  0.97357668  0.82692625
   0.76859363  0.54611676  0.28050442
   0.15863741  0.95084042  0.32237463
   0.43742169  0.88922717  0.01661770
   0.80105268  0.91685403  0.39564661
   0.10567897  0.36747844  0.68566962
   0.19577035  0.13162842  0.90540413
   0.32177391  0.12329022  0.05573693
   0.88938435  0.67932090  0.40106431
   0.78103442  0.61633309  0.52589204
   0.61681018  0.24464248  0.81181711
   0.38832643  0.23190097  0.61981711
   0.95782159  0.44883696  0.10326667
   0.06770167  0.03376452  0.96432448
   0.69230423  0.94818570  0.04593198
   0.62602248  0.92937254  0.88345723
   0.29121420  0.70698315  0.96176401
   0.23360329  0.18512646  0.56344838
   0.67365185  0.18767677  0.43552566
   0.49661773  0.72412679  0.07328496
   0.45015035  0.02015020  0.89801770
   0.42042981  0.06120501  0.46007434
   0.90325925  0.11401401  0.22483186
   0.76326440  0.77150480  0.30955870
   0.27644962  0.34572149  0.05144366
   0.11644024  0.02477285  0.13169794
   0.32338608  0.73338293  0.17495162
   0.09100280  0.81416331  0.11405605
   0.88086132  0.07700300  0.46436578
   0.50762529  0.84168987  0.35382714
   0.11612785  0.28074971  0.91382301
   0.54982654  0.17187348  0.23348909
   0.95170461  0.17841178  0.66896755
   0.90831863  0.41081361  0.93543953
   0.14904455  0.75749965  0.33549027
   0.21177736  0.92199240  0.93919174
   0.31909157  0.21424999  0.78463127
   0.83004990  0.51232563  0.72938053
   0.95672937  0.72353685  0.16169971
   0.92162137  0.66834213  0.90271976
   0.79121470  0.26284152  0.82317404
   0.21305746  0.35667902  0.39395398
   0.45794802  0.27828966  0.92220059
   0.12334470  0.12821503  0.35451386
   0.11177794  0.07517536  0.76588791
   0.66476256  0.35606253  0.99706785
   0.45350930  0.25623184  0.44505723
   0.59466371  0.15963519  0.66423009
   0.37845659  0.61863386  0.39018879
   0.62637251  0.70053512  0.47536991
   0.68409566  0.61800852  0.92651327
   0.16439347  0.55164036  0.83995870
   0.72511646  0.78069016  0.08048260
   0.00593742  0.86432584  0.77564602
   0.18636859  0.95676341  0.49279292
   0.46884090  0.73891656  0.84584071
   0.45146925  0.51256927  0.04791263
   0.03693608  0.60846920  0.46256932
   0.88460576  0.94122442  0.02320100
   0.02698375  0.64265618  0.68010619
   0.95935967  0.92412798  0.30461121
   0.83133256  0.56573519  0.11438348
   0.82444120  0.96124695  0.65840118
   0.35080996  0.39768215  0.60496755
   0.58697731  0.61193805  0.24063009
   0.37903311  0.49134149  0.81264897
   0.32845558  0.17466979  0.22253746
   0.65540927  0.95104690  0.49903068
   0.03129125  0.86032015  0.53696342
   0.70675982  0.98792990  0.26379115
   0.23105276  0.51530364  0.22729145
   0.43498994  0.40055280  0.25373392
   0.29834417  0.83484068  0.51576342
   0.32186238  0.96249762  0.27965192
   0.10142401  0.28740954  0.16227729
   0.53893186  0.96064521  0.12895634
   0.60935590  0.40047492  0.74612979
   0.77963005  0.30918832  0.58951976
   0.25013906  0.58943363  0.58665723
   0.87600092  0.79314967  0.52906195
   0.25574047  0.01840363  0.70567552
   0.83513605  0.32373032  0.17937227
   0.67084376  0.68295493  0.71530383
   0.45160497  0.96532343  0.69139233
   0.98638114  0.40531125  0.56632212
   0.76975998  0.83666949  0.84080826
   0.03444003  0.48433714  0.26711445
   0.21547351  0.78755705  0.73705015
   0.89191098  0.45600236  0.35793687
   0.55424690  0.45917683  0.45684425
   0.72174723  0.13702636  0.06092389
   0.96218720  0.17683841  0.98496165
   0.74192000  0.46838755  0.45040059
   0.71840877  0.06779817  0.85136283
   0.08160148  0.54819275  0.03160944
   0.44432588  0.72986099  0.61150442
 
 position of ions in cartesian coordinates  (Angst):
  12.76050000  7.17127000 14.59490000
   4.59738000  3.38293000  6.79528000
   9.07156000 10.19220000  6.57855000
  15.81330000  9.45007000  9.88167000
   2.38216000  8.92976000 11.59110000
   9.48172000  5.21674000  5.46836000
   9.61054000 10.28350000 13.85820000
  13.28090000  2.94817000 11.49890000
   6.50157000  9.83431000  3.86868000
  14.41760000 14.45490000  3.16316000
   2.06120000 12.06170000  9.47735000
  14.81230000  1.49432000  1.28066000
   4.78461000  5.80111000  3.71956000
   2.77512000 12.03580000 14.73400000
   6.72543000  6.94376000  7.41248000
  15.57910000  4.17605000  8.89651000
   7.43094000  5.98171000  1.38311000
  13.91120000  4.86180000  0.27100900
  16.84020000 13.07690000  5.26931000
  16.42070000  9.04019000 13.92950000
   3.85241000  8.45383000  1.14932000
   2.88713000  2.59747000  3.48758000
  10.25720000 12.85050000 16.23580000
  16.29570000  0.33783100 10.11750000
   2.82178000 11.63590000  3.18128000
  15.16090000 12.65210000 12.86260000
  15.04340000  6.09016000 11.94960000
   5.43351000 15.38120000 13.63230000
  10.10150000  4.71117000  9.32913000
  12.57870000  1.32879000  9.34538000
   5.41854000  9.32158000 16.20040000
   3.49612000  5.82032000  9.47382000
  12.42910000  2.66334000  3.93253000
   5.59339000 11.20280000 12.24310000
   4.89544000 16.20560000  1.51538000
   9.79957000  0.95850300  6.34920000
   3.89552000  5.99950000 13.78070000
   0.61594300 13.46440000 15.73160000
  11.74940000  6.86881000  3.70282000
   8.30957000  2.25936000  0.30144600
  10.10980000 13.30980000  3.41913000
   9.59177000 10.32690000 10.26920000
   9.30573000 13.99390000 12.29090000
   8.83249000  7.48109000 15.10360000
   1.00027000  5.39897000  5.44403000
   7.77313000 15.46200000  8.89028000
   5.85521000 13.48080000  5.71529000
  11.34540000  8.59885000  1.28835000
  14.64310000 16.50300000 14.01640000
  13.03150000  9.25717000  4.75455000
   2.68933000 16.11760000  5.46425000
   7.41668000 15.07320000  0.28167000
  13.58170000 15.54150000  6.70621000
   1.79089000  6.22909000 11.62210000
   3.31813000  2.23122000 15.34660000
   5.45576000  2.08988000  0.94474100
  15.07940000 11.51510000  6.79804000
  13.24210000 10.44740000  8.91387000
  10.45720000  4.14691000 13.76030000
   6.58341000  3.93093000 10.50590000
  16.24020000  7.60819000  1.75037000
   1.14658000  0.57233900 16.34530000
  11.73830000 16.07260000  0.77854700
  10.61330000 15.75370000 14.97460000
   4.93635000 11.98400000 16.30190000
   3.96008000  3.13806000  9.55045000
  11.42150000  3.18129000  7.38216000
   8.42030000 12.27460000  1.24218000
   7.63128000  0.34156400 15.22140000
   7.12796000  1.03748000  7.79826000
  15.31490000  1.93264000  3.81090000
  12.94110000 13.07770000  5.24702000
   4.68727000  5.86029000  0.87197000
   1.97412000  0.41992200  2.23228000
   5.48293000 12.43150000  2.96543000
   1.54284000 13.80080000  1.93325000
  14.93480000  1.30527000  7.87100000
   8.60655000 14.26740000  5.99737000
   1.96774000  4.75896000 15.48930000
   9.32226000  2.91341000  3.95764000
  16.13570000  3.02424000 11.33900000
  15.39970000  6.96366000 15.85570000
   2.52666000 12.84030000  5.68656000
   3.58949000 15.62860000 15.91930000
   5.40927000  3.63173000 13.29950000
  14.07290000  8.68438000 12.36300000
  16.22160000 12.26460000  2.74081000
  15.62530000 11.32900000 15.30110000
  13.41430000  4.45540000 13.95280000
   3.61195000  6.04603000  6.67752000
   7.76346000  4.71726000 15.63130000
   2.09088000  2.17336000  6.00901000
   1.89419000  1.27429000 12.98180000
  11.27000000  6.03558000 16.90030000
   7.68886000  4.34336000  7.54372000
  10.08190000  2.70596000 11.25870000
   6.41638000 10.48640000  6.61370000
  10.61980000 11.87470000  8.05752000
  11.59790000 10.47580000 15.70440000
   2.78621000  9.35080000 14.23730000
  12.29460000 13.23340000  1.36418000
   0.09959770 14.65110000 13.14720000
   3.15929000 16.21800000  8.35284000
   7.94826000 12.52530000 14.33700000
   7.65482000  8.68851000  0.81211900
   0.62562900 10.31410000  7.84055000
  14.99890000 15.95460000  0.39325700
   0.45658100 10.89360000 11.52780000
  16.26600000 15.66480000  5.16316000
  14.09550000  9.58972000  1.93880000
  13.97790000 16.29400000 11.15990000
   5.94732000  6.74107000 10.25420000
   9.95216000 10.37290000  4.07868000
   6.42557000  8.32868000 13.77440000
   5.56882000  2.96081000  3.77201000
  11.11210000 16.12110000  8.45857000
   0.52981500 14.58320000  9.10153000
  11.98310000 16.74630000  4.47126000
   3.91730000  8.73486000  3.85259000
   7.37512000  6.78973000  4.30079000
   5.05786000 14.15130000  8.74219000
   5.45695000 16.31520000  4.74010000
   1.71947000  4.87185000  2.75060000
   9.13768000 16.28380000  2.18581000
  10.33090000  6.78841000 12.64690000
  13.21820000  5.24102000  9.99236000
   4.24042000  9.99143000  9.94384000
  14.85230000 13.44460000  8.96760000
   4.33523000  0.31195800 11.96120000
  14.15990000  5.48752000  3.04036000
  11.37350000 11.57670000 12.12440000
   7.65623000 16.36310000 11.71910000
  16.72380000  6.87039000  9.59916000
  13.05050000 14.18230000 14.25170000
   0.58357800  8.20995000  4.52759000
   3.65244000 13.34980000 12.49300000
  15.12230000  7.72965000  6.06703000
   9.39690000  7.78346000  7.74351000
  12.23750000  2.32272000  1.03266000
  16.31300000  2.99757000 16.69510000
  12.57900000  7.93959000  7.63429000
  12.17980000  1.14924000 14.43060000
   1.38355000  9.29236000  0.53578000
   7.53292000 12.37180000 10.36500000
 


--------------------------------------------------------------------------------------------------------


 k-point  1 :   0.2500 0.2500 0.2500  plane waves:   43707
 k-point  2 :  -0.2500 0.2500-0.2500  plane waves:   43707
 k-point  3 :  -0.2500 0.2500 0.2500  plane waves:   43708
 k-point  4 :   0.2500 0.2500-0.2500  plane waves:   43708

 maximum and minimum number of plane-waves per node :     10953    10897

 maximum number of plane-waves:     43708
 maximum index in each direction: 
   IXMAX=   22   IYMAX=   21   IZMAX=   22
   IXMIN=  -22   IYMIN=  -22   IZMIN=  -22


 real space projection operators:
  total allocation   :      15626.10 KBytes
  max/ min on nodes  :       3998.41       3814.48


 parallel 3D FFT for wavefunctions:
    minimum data exchange during FFTs selected (reduces bandwidth)
 parallel 3D FFT for charge:
    minimum data exchange during FFTs selected (reduces bandwidth)


 total amount of memory used by VASP MPI-rank0   141799. kBytes
=======================================================================

   base      :      30000. kBytes
   nonlr-proj:       3976. kBytes
   fftplans  :       8669. kBytes
   grid      :      14958. kBytes
   one-center:        292. kBytes
   wavefun   :      83904. kBytes
 
     INWAV:  cpu time    0.0001: real time    0.0001
 Broyden mixing: mesh for mixing (old mesh)
   NGX = 43   NGY = 43   NGZ = 43
  (NGX  =140   NGY  =140   NGZ  =140)
  gives a total of  79507 points

 initial charge density was supplied:
 charge density of overlapping atoms calculated
 number of electron     768.0000000 magnetization 
 keeping initial charge density in first step


--------------------------------------------------------------------------------------------------------


 Maximum index for non-local projection operator          346
 Maximum index for augmentation-charges          384 (set IRDMAX)


--------------------------------------------------------------------------------------------------------


 First call to EWALD:  gamma=   0.105
 Maximum number of real-space cells 3x 3x 3
 Maximum number of reciprocal cells 3x 3x 3

    FEWALD:  cpu time    0.0145: real time    0.0145


--------------------------------------- Iteration      1(   1)  ---------------------------------------


    POTLOK:  cpu time    0.2012: real time    0.2078
    SETDIJ:  cpu time    0.0455: real time    0.0463
     EDDAV:  cpu time   11.2026: real time   11.2182
       DOS:  cpu time    0.0059: real time    0.0061
    --------------------------------------------
      LOOP:  cpu time   11.4553: real time   11.4784

 eigenvalue-minimisations  :  3680
 total energy-change (2. order) : 0.2719863E+04  (-0.1784181E+05)
 number of electron     768.0000000 magnetization 
 augmentation part      768.0000000 magnetization 

 Free energy of the ion-electron system (eV)
  ---------------------------------------------------
  alpha Z        PSCENC =       235.51332905
  Ewald energy   TEWEN  =    -25080.49233355
  -Hartree energ DENC   =     -2504.19253321
  -exchange      EXHF   =         0.00000000
  -V(xc)+E(xc)   XCENC  =     -3971.61977372
  PAW double counting   =     24677.92343082   -19408.96169433
  entropy T*S    EENTRO =        -0.05555709
  eigenvalues    EBANDS =      2752.03184751
  atomic energy  EATOM  =     26019.71659938
  Solvation  Ediel_sol  =         0.00000000
  ---------------------------------------------------
  free energy    TOTEN  =      2719.86331486 eV

  energy without entropy =     2719.91887195  energy(sigma->0) =     2719.89109340


--------------------------------------------------------------------------------------------------------




--------------------------------------- Iteration      1(   2)  ---------------------------------------


     EDDAV:  cpu time   12.8451: real time   12.8909
       DOS:  cpu time    0.0031: real time    0.0032
    --------------------------------------------
      LOOP:  cpu time   12.8482: real time   12.8941

 eigenvalue-minimisations  :  4336
 total energy-change (2. order) :-0.2936986E+04  (-0.2838112E+04)
 number of electron     768.0000000 magnetization 
 augmentation part      768.0000000 magnetization 

 Free energy of the ion-electron system (eV)
  ---------------------------------------------------
  alpha Z        PSCENC =       235.51332905
  Ewald energy   TEWEN  =    -25080.49233355
  -Hartree energ DENC   =     -2504.19253321
  -exchange      EXHF   =         0.00000000
  -V(xc)+E(xc)   XCENC  =     -3971.61977372
  PAW double counting   =     24677.92343082   -19408.96169433
  entropy T*S    EENTRO =        -0.04131527
  eigenvalues    EBANDS =      -184.96809647
  atomic energy  EATOM  =     26019.71659938
  Solvation  Ediel_sol  =         0.00000000
  ---------------------------------------------------
  free energy    TOTEN  =      -217.12238730 eV

  energy without entropy =     -217.08107202  energy(sigma->0) =     -217.10172966


--------------------------------------------------------------------------------------------------------




--------------------------------------- Iteration      1(   3)  ---------------------------------------


     EDDAV:  cpu time   12.9309: real time   12.9744
       DOS:  cpu time    0.0028: real time    0.0028
    --------------------------------------------
      LOOP:  cpu time   12.9337: real time   12.9773

 eigenvalue-minimisations  :  4384
 total energy-change (2. order) :-0.2954881E+03  (-0.2866531E+03)
 number of electron     768.0000000 magnetization 
 augmentation part      768.0000000 magnetization 

 Free energy of the ion-electron system (eV)
  ---------------------------------------------------
  alpha Z        PSCENC =       235.51332905
  Ewald energy   TEWEN  =    -25080.49233355
  -Hartree energ DENC   =     -2504.19253321
  -exchange      EXHF   =         0.00000000
  -V(xc)+E(xc)   XCENC  =     -3971.61977372
  PAW double counting   =     24677.92343082   -19408.96169433
  entropy T*S    EENTRO =        -0.04479234
  eigenvalues    EBANDS =      -480.45268144
  atomic energy  EATOM  =     26019.71659938
  Solvation  Ediel_sol  =         0.00000000
  ---------------------------------------------------
  free energy    TOTEN  =      -512.61044934 eV

  energy without entropy =     -512.56565700  energy(sigma->0) =     -512.58805317


--------------------------------------------------------------------------------------------------------




--------------------------------------- Iteration      1(   4)  ---------------------------------------


     EDDAV:  cpu time   14.2853: real time   14.3299
       DOS:  cpu time    0.0029: real time    0.0029
    --------------------------------------------
      LOOP:  cpu time   14.2881: real time   14.3327

 eigenvalue-minimisations  :  5000
 total energy-change (2. order) :-0.1410968E+02  (-0.1394853E+02)
 number of electron     768.0000000 magnetization 
 augmentation part      768.0000000 magnetization 

 Free energy of the ion-electron system (eV)
  ---------------------------------------------------
  alpha Z        PSCENC =       235.51332905
  Ewald energy   TEWEN  =    -25080.49233355
  -Hartree energ DENC   =     -2504.19253321
  -exchange      EXHF   =         0.00000000
  -V(xc)+E(xc)   XCENC  =     -3971.61977372
  PAW double counting   =     24677.92343082   -19408.96169433
  entropy T*S    EENTRO =        -0.04844885
  eigenvalues    EBANDS =      -494.55870378
  atomic energy  EATOM  =     26019.71659938
  Solvation  Ediel_sol  =         0.00000000
  ---------------------------------------------------
  free energy    TOTEN  =      -526.72012819 eV

  energy without entropy =     -526.67167933  energy(sigma->0) =     -526.69590376


--------------------------------------------------------------------------------------------------------




--------------------------------------- Iteration      1(   5)  ---------------------------------------


     EDDAV:  cpu time   13.9537: real time   13.9714
       DOS:  cpu time    0.0030: real time    0.0030
    CHARGE:  cpu time    0.4945: real time    0.4947
    MIXING:  cpu time    0.0244: real time    0.0252
    --------------------------------------------
      LOOP:  cpu time   14.4758: real time   14.4943

 eigenvalue-minimisations  :  4800
 total energy-change (2. order) :-0.4072750E+00  (-0.4047398E+00)
 number of electron     768.0000100 magnetization 
 augmentation part     -144.2576950 magnetization 

 Broyden mixing:
  rms(total) = 0.47619E+01    rms(broyden)= 0.47618E+01
  rms(prec ) = 0.48415E+01
  weight for this iteration     100.00

 Free energy of the ion-electron system (eV)
  ---------------------------------------------------
  alpha Z        PSCENC =       235.51332905
  Ewald energy   TEWEN  =    -25080.49233355
  -Hartree energ DENC   =     -2504.19253321
  -exchange      EXHF   =         0.00000000
  -V(xc)+E(xc)   XCENC  =     -3971.61977372
  PAW double counting   =     24677.92343082   -19408.96169433
  entropy T*S    EENTRO =        -0.04865644
  eigenvalues    EBANDS =      -494.96577120
  atomic energy  EATOM  =     26019.71659938
  Solvation  Ediel_sol  =         0.00000000
  ---------------------------------------------------
  free energy    TOTEN  =      -527.12740320 eV

  energy without entropy =     -527.07874676  energy(sigma->0) =     -527.10307498


--------------------------------------------------------------------------------------------------------




--------------------------------------- Iteration      1(   6)  ---------------------------------------


    POTLOK:  cpu time    0.1927: real time    0.2192
    SETDIJ:  cpu time    0.0394: real time    0.0394
    EDDIAG:  cpu time    1.4751: real time    1.4770
  RMM-DIIS:  cpu time    4.5517: real time    4.5565
    ORTHCH:  cpu time    0.3326: real time    0.3336
       DOS:  cpu time    0.0029: real time    0.0029
    CHARGE:  cpu time    0.5125: real time    0.5126
    MIXING:  cpu time    0.0167: real time    0.0167
    --------------------------------------------
      LOOP:  cpu time    7.1234: real time    7.1579

 eigenvalue-minimisations  :  3963
 total energy-change (2. order) : 0.4259908E+01  (-0.1051885E+01)
 number of electron     768.0000099 magnetization 
 augmentation part     -143.7835496 magnetization 

 Broyden mixing:
  rms(total) = 0.28698E+01    rms(broyden)= 0.28698E+01
  rms(prec ) = 0.28934E+01
  weight for this iteration     100.00

 eigenvalues of (default mixing * dielectric matrix)
  average eigenvalue GAMMA=   2.4267
  2.4267

 Free energy of the ion-electron system (eV)
  ---------------------------------------------------
  alpha Z        PSCENC =       235.51332905
  Ewald energy   TEWEN  =    -25080.49233355
  -Hartree energ DENC   =     -2540.64193435
  -exchange      EXHF   =         0.00000000
  -V(xc)+E(xc)   XCENC  =     -3965.88547551
  PAW double counting   =     33197.45773176   -27932.32083598
  entropy T*S    EENTRO =        -0.06059159
  eigenvalues    EBANDS =      -456.15398477
  atomic energy  EATOM  =     26019.71659938
  Solvation  Ediel_sol  =         0.00000000
  ---------------------------------------------------
  free energy    TOTEN  =      -522.86749557 eV

  energy without entropy =     -522.80690397  energy(sigma->0) =     -522.83719977


--------------------------------------------------------------------------------------------------------




--------------------------------------- Iteration      1(   7)  ---------------------------------------


    POTLOK:  cpu time    0.1648: real time    0.1909
    SETDIJ:  cpu time    0.0390: real time    0.0390
    EDDIAG:  cpu time    1.4701: real time    1.4721
  RMM-DIIS:  cpu time    4.9047: real time    4.9099
    ORTHCH:  cpu time    0.3331: real time    0.3340
       DOS:  cpu time    0.0027: real time    0.0028
    CHARGE:  cpu time    0.4922: real time    0.4923
    MIXING:  cpu time    0.0146: real time    0.0146
    --------------------------------------------
      LOOP:  cpu time    7.4213: real time    7.4554

 eigenvalue-minimisations  :  4290
 total energy-change (2. order) :-0.3060326E-01  (-0.6500695E+00)
 number of electron     768.0000098 magnetization 
 augmentation part     -143.5914038 magnetization 

 Broyden mixing:
  rms(total) = 0.38567E+00    rms(broyden)= 0.38566E+00
  rms(prec ) = 0.49315E+00
  weight for this iteration     100.00

 eigenvalues of (default mixing * dielectric matrix)
  average eigenvalue GAMMA=   1.7761
  1.0294  2.5229

 Free energy of the ion-electron system (eV)
  ---------------------------------------------------
  alpha Z        PSCENC =       235.51332905
  Ewald energy   TEWEN  =    -25080.49233355
  -Hartree energ DENC   =     -2580.07249294
  -exchange      EXHF   =         0.00000000
  -V(xc)+E(xc)   XCENC  =     -3958.09505497
  PAW double counting   =     48125.31791828   -42864.27526073
  entropy T*S    EENTRO =        -0.05066729
  eigenvalues    EBANDS =      -420.46013604
  atomic energy  EATOM  =     26019.71659938
  Solvation  Ediel_sol  =         0.00000000
  ---------------------------------------------------
  free energy    TOTEN  =      -522.89809882 eV

  energy without entropy =     -522.84743153  energy(sigma->0) =     -522.87276517


--------------------------------------------------------------------------------------------------------




--------------------------------------- Iteration      1(   8)  ---------------------------------------


    POTLOK:  cpu time    0.1903: real time    0.1913
    SETDIJ:  cpu time    0.0392: real time    0.0392
    EDDIAG:  cpu time    1.4979: real time    1.4989
  RMM-DIIS:  cpu time    4.8490: real time    4.8553
    ORTHCH:  cpu time    0.3324: real time    0.3325
       DOS:  cpu time    0.0033: real time    0.0033
    CHARGE:  cpu time    0.4910: real time    0.4918
    MIXING:  cpu time    0.0137: real time    0.0137
    --------------------------------------------
      LOOP:  cpu time    7.4167: real time    7.4261

 eigenvalue-minimisations  :  4253
 total energy-change (2. order) : 0.2453293E+00  (-0.1036238E+00)
 number of electron     768.0000099 magnetization 
 augmentation part     -143.6412856 magnetization 

 Broyden mixing:
  rms(total) = 0.18200E+00    rms(broyden)= 0.18200E+00
  rms(prec ) = 0.27568E+00
  weight for this iteration     100.00

 eigenvalues of (default mixing * dielectric matrix)
  average eigenvalue GAMMA=   1.4708
  2.5631  1.2256  0.6236

 Free energy of the ion-electron system (eV)
  ---------------------------------------------------
  alpha Z        PSCENC =       235.51332905
  Ewald energy   TEWEN  =    -25080.49233355
  -Hartree energ DENC   =     -2582.51056780
  -exchange      EXHF   =         0.00000000
  -V(xc)+E(xc)   XCENC  =     -3957.49707849
  PAW double counting   =     49574.89438434   -44313.90744396
  entropy T*S    EENTRO =        -0.05667642
  eigenvalues    EBANDS =      -418.31298204
  atomic energy  EATOM  =     26019.71659938
  Solvation  Ediel_sol  =         0.00000000
  ---------------------------------------------------
  free energy    TOTEN  =      -522.65276949 eV

  energy without entropy =     -522.59609307  energy(sigma->0) =     -522.62443128


--------------------------------------------------------------------------------------------------------




--------------------------------------- Iteration      1(   9)  ---------------------------------------


    POTLOK:  cpu time    0.1640: real time    0.1900
    SETDIJ:  cpu time    0.0391: real time    0.0391
    EDDIAG:  cpu time    1.4949: real time    1.4969
  RMM-DIIS:  cpu time    4.7965: real time    4.8018
    ORTHCH:  cpu time    0.3333: real time    0.3334
       DOS:  cpu time    0.0032: real time    0.0032
    CHARGE:  cpu time    0.4967: real time    0.4977
    MIXING:  cpu time    0.0139: real time    0.0139
    --------------------------------------------
      LOOP:  cpu time    7.3417: real time    7.3760

 eigenvalue-minimisations  :  4215
 total energy-change (2. order) : 0.9913685E-01  (-0.2130653E-01)
 number of electron     768.0000099 magnetization 
 augmentation part     -143.7024842 magnetization 

 Broyden mixing:
  rms(total) = 0.88111E-01    rms(broyden)= 0.88108E-01
  rms(prec ) = 0.11339E+00
  weight for this iteration     100.00

 eigenvalues of (default mixing * dielectric matrix)
  average eigenvalue GAMMA=   1.3781
  2.5780  1.1839  1.1839  0.5665

 Free energy of the ion-electron system (eV)
  ---------------------------------------------------
  alpha Z        PSCENC =       235.51332905
  Ewald energy   TEWEN  =    -25080.49233355
  -Hartree energ DENC   =     -2581.41430412
  -exchange      EXHF   =         0.00000000
  -V(xc)+E(xc)   XCENC  =     -3957.34063346
  PAW double counting   =     49925.96262621   -44664.88927711
  entropy T*S    EENTRO =        -0.06186213
  eigenvalues    EBANDS =      -419.54777691
  atomic energy  EATOM  =     26019.71659938
  Solvation  Ediel_sol  =         0.00000000
  ---------------------------------------------------
  free energy    TOTEN  =      -522.55363264 eV

  energy without entropy =     -522.49177052  energy(sigma->0) =     -522.52270158


--------------------------------------------------------------------------------------------------------




--------------------------------------- Iteration      1(  10)  ---------------------------------------


    POTLOK:  cpu time    0.1637: real time    0.1890
    SETDIJ:  cpu time    0.0391: real time    0.0391
    EDDIAG:  cpu time    1.4731: real time    1.4750
  RMM-DIIS:  cpu time    5.0224: real time    5.0389
    ORTHCH:  cpu time    0.3320: real time    0.3330
       DOS:  cpu time    0.0028: real time    0.0028
    CHARGE:  cpu time    0.4890: real time    0.4890
    MIXING:  cpu time    0.0149: real time    0.0149
    --------------------------------------------
      LOOP:  cpu time    7.5371: real time    7.5817

 eigenvalue-minimisations  :  4420
 total energy-change (2. order) : 0.5573374E-02  (-0.3841498E-02)
 number of electron     768.0000099 magnetization 
 augmentation part     -143.7240723 magnetization 

 Broyden mixing:
  rms(total) = 0.54404E-01    rms(broyden)= 0.54403E-01
  rms(prec ) = 0.63416E-01
  weight for this iteration     100.00

 eigenvalues of (default mixing * dielectric matrix)
  average eigenvalue GAMMA=   1.3566
  2.5677  1.5053  1.5053  0.7172  0.4876

 Free energy of the ion-electron system (eV)
  ---------------------------------------------------
  alpha Z        PSCENC =       235.51332905
  Ewald energy   TEWEN  =    -25080.49233355
  -Hartree energ DENC   =     -2581.81439207
  -exchange      EXHF   =         0.00000000
  -V(xc)+E(xc)   XCENC  =     -3957.26252170
  PAW double counting   =     49974.83894975   -44713.72390439
  entropy T*S    EENTRO =        -0.06167821
  eigenvalues    EBANDS =      -419.26210752
  atomic energy  EATOM  =     26019.71659938
  Solvation  Ediel_sol  =         0.00000000
  ---------------------------------------------------
  free energy    TOTEN  =      -522.54805927 eV

  energy without entropy =     -522.48638106  energy(sigma->0) =     -522.51722016


--------------------------------------------------------------------------------------------------------




--------------------------------------- Iteration      1(  11)  ---------------------------------------


    POTLOK:  cpu time    0.1638: real time    0.1900
    SETDIJ:  cpu time    0.0380: real time    0.0380
    EDDIAG:  cpu time    1.4741: real time    1.4751
  RMM-DIIS:  cpu time    4.9801: real time    4.9861
    ORTHCH:  cpu time    0.3330: real time    0.3330
       DOS:  cpu time    0.0026: real time    0.0026
    CHARGE:  cpu time    0.4880: real time    0.4889
    MIXING:  cpu time    0.0147: real time    0.0147
[...]
   0.143E+02 -.433E+02 -.325E+02   -.156E+02 0.483E+02 0.355E+02   0.167E+01 -.515E+01 -.291E+01   -.267E-02 0.326E-02 0.238E-02
   0.196E+02 -.612E+01 0.339E+01   -.244E+02 0.663E+01 -.458E+00   0.458E+01 -.351E+00 -.285E+01   0.980E-03 -.998E-03 -.703E-02
   -.202E+02 -.906E+01 -.996E+01   0.232E+02 0.122E+02 0.123E+02   -.288E+01 -.295E+01 -.227E+01   -.774E-03 -.140E-02 -.348E-02
   -.448E+02 0.339E+02 0.289E+02   0.472E+02 -.372E+02 -.323E+02   -.208E+01 0.320E+01 0.333E+01   0.383E-02 -.421E-02 -.249E-03
   -.255E+02 0.160E+02 0.138E+02   0.262E+02 -.199E+02 -.150E+02   -.879E+00 0.391E+01 0.133E+01   0.595E-03 -.757E-03 -.388E-02
   0.765E+01 -.207E+02 -.739E+01   -.845E+01 0.235E+02 0.102E+02   0.712E+00 -.280E+01 -.246E+01   0.219E-02 -.636E-03 0.602E-03
   -.222E+02 -.516E+02 -.110E+02   0.238E+02 0.559E+02 0.107E+02   -.174E+01 -.418E+01 0.681E-01   0.958E-03 0.883E-03 0.228E-02
   -.129E+02 -.183E+02 0.169E+02   0.135E+02 0.230E+02 -.188E+02   -.522E+00 -.449E+01 0.169E+01   0.231E-02 -.213E-03 0.154E-02
   0.251E+02 0.205E+02 -.325E+01   -.285E+02 -.236E+02 0.241E+01   0.367E+01 0.297E+01 0.733E+00   -.373E-02 -.233E-03 0.180E-02
   -.269E+02 -.329E+02 -.248E+02   0.286E+02 0.377E+02 0.278E+02   -.162E+01 -.479E+01 -.287E+01   0.302E-02 0.421E-02 0.250E-02
   -.462E+01 0.185E+02 0.617E+01   0.445E+01 -.209E+02 -.101E+02   0.660E-01 0.221E+01 0.380E+01   0.137E-02 -.160E-02 0.337E-02
   -.703E+01 0.211E+02 0.469E+02   0.541E+01 -.214E+02 -.508E+02   0.158E+01 0.230E+00 0.389E+01   0.453E-03 0.716E-03 -.543E-02
   -.366E+02 0.142E+02 -.950E+01   0.411E+02 -.151E+02 0.126E+02   -.432E+01 0.733E+00 -.336E+01   0.649E-03 0.112E-02 0.404E-05
   0.159E+02 0.301E+02 -.444E+02   -.169E+02 -.335E+02 0.467E+02   0.945E+00 0.327E+01 -.212E+01   -.368E-03 -.194E-02 0.540E-02
   -.193E+02 -.308E+02 -.166E+02   0.207E+02 0.326E+02 0.147E+02   -.138E+01 -.196E+01 0.149E+01   0.126E-02 0.111E-02 0.219E-02
   0.269E+01 -.400E+01 0.692E+00   -.438E+01 0.122E+01 -.293E+01   0.178E+01 0.267E+01 0.191E+01   -.563E-03 0.185E-02 0.127E-02
   0.255E+02 -.773E+01 -.448E+02   -.285E+02 0.755E+01 0.486E+02   0.313E+01 0.117E+00 -.364E+01   -.215E-02 -.240E-03 0.438E-02
   -.237E+02 -.112E+00 -.225E+01   0.248E+02 0.302E+01 0.242E+01   -.102E+01 -.314E+01 -.600E-01   0.113E-02 -.534E-03 0.163E-02
   0.919E+01 0.107E+02 -.166E+02   -.895E+01 -.156E+02 0.191E+02   -.421E+00 0.523E+01 -.219E+01   0.165E-02 -.272E-02 0.294E-02
   -.251E+02 -.192E+02 0.515E+00   0.292E+02 0.222E+02 -.103E+00   -.426E+01 -.300E+01 -.333E+00   -.614E-04 0.125E-02 0.495E-03
   0.377E+02 -.128E+01 0.289E+02   -.390E+02 0.419E+01 -.335E+02   0.122E+01 -.276E+01 0.486E+01   -.173E-02 0.113E-02 0.115E-02
   0.224E+02 -.305E+02 -.250E+02   -.229E+02 0.333E+02 0.301E+02   0.479E+00 -.277E+01 -.499E+01   0.319E-03 0.237E-02 -.167E-02
   0.231E+02 -.191E+02 0.597E+02   -.225E+02 0.218E+02 -.638E+02   -.651E+00 -.284E+01 0.410E+01   -.433E-02 0.469E-03 -.502E-02
   0.203E+02 -.295E+02 0.348E+02   -.232E+02 0.325E+02 -.368E+02   0.289E+01 -.304E+01 0.186E+01   -.133E-02 0.123E-02 -.430E-02
   -.244E+02 0.193E+02 0.511E+02   0.264E+02 -.203E+02 -.563E+02   -.174E+01 0.820E+00 0.511E+01   0.333E-02 -.283E-02 -.914E-03
   0.294E+02 -.107E+02 -.394E+02   -.331E+02 0.112E+02 0.429E+02   0.347E+01 -.463E+00 -.342E+01   -.238E-02 -.968E-03 0.206E-02
   0.254E+01 -.131E+02 0.335E+02   0.561E+00 0.140E+02 -.379E+02   -.296E+01 -.110E+01 0.449E+01   -.113E-02 0.147E-03 -.116E-02
   -.211E+02 0.185E+02 -.385E+02   0.247E+02 -.207E+02 0.417E+02   -.382E+01 0.225E+01 -.311E+01   0.612E-03 0.596E-03 0.440E-02
   -.404E+02 -.102E+02 0.221E+02   0.450E+02 0.111E+02 -.212E+02   -.458E+01 -.125E+01 -.108E+01   -.365E-02 0.232E-02 -.394E-02
   -.171E+02 -.434E+02 0.273E+01   0.176E+02 0.476E+02 -.161E+01   -.651E+00 -.431E+01 -.111E+01   0.397E-02 -.221E-02 0.106E-02
   -.221E+02 0.278E+02 0.407E+02   0.237E+02 -.285E+02 -.439E+02   -.178E+01 0.864E+00 0.281E+01   0.335E-02 -.196E-02 -.411E-02
   0.560E+01 0.189E+02 0.193E+02   -.681E+01 -.228E+02 -.181E+02   0.144E+01 0.358E+01 -.110E+01   -.139E-02 0.239E-02 -.305E-02
   -.158E+02 -.141E+02 -.136E+02   0.183E+02 0.186E+02 0.136E+02   -.223E+01 -.480E+01 -.209E-01   -.158E-02 -.101E-02 0.370E-02
   0.107E+02 -.329E+02 0.304E+02   -.137E+02 0.360E+02 -.343E+02   0.279E+01 -.287E+01 0.383E+01   0.135E-02 -.283E-02 -.910E-03
   -.164E+02 0.501E+02 -.159E+02   0.175E+02 -.527E+02 0.186E+02   -.965E+00 0.259E+01 -.241E+01   0.856E-03 -.420E-02 0.127E-02
   -.915E+01 0.103E+02 -.375E+02   0.116E+02 -.134E+02 0.395E+02   -.283E+01 0.317E+01 -.200E+01   0.688E-03 0.984E-03 0.526E-02
   0.369E+02 -.191E+02 0.208E+02   -.411E+02 0.201E+02 -.239E+02   0.416E+01 -.975E+00 0.322E+01   -.322E-02 0.138E-02 -.215E-02
   -.170E+02 -.212E+02 0.280E+02   0.182E+02 0.244E+02 -.304E+02   -.128E+01 -.331E+01 0.223E+01   0.903E-03 0.371E-03 -.227E-02
   0.107E+02 0.397E+02 -.193E+02   -.126E+02 -.434E+02 0.196E+02   0.206E+01 0.423E+01 -.238E+00   -.223E-03 -.436E-02 0.139E-02
   0.157E+02 -.166E+02 0.147E+02   -.159E+02 0.205E+02 -.148E+02   -.917E-01 -.371E+01 0.240E+00   -.238E-02 -.809E-03 -.173E-02
   0.178E+02 -.353E+01 0.421E+01   -.194E+02 0.674E+01 -.692E+01   0.164E+01 -.316E+01 0.272E+01   -.570E-03 -.899E-03 -.939E-03
   0.487E+01 0.741E+01 0.204E+02   -.632E+01 -.542E+01 -.241E+02   0.125E+01 -.176E+01 0.364E+01   0.111E-02 -.393E-02 0.189E-02
 -----------------------------------------------------------------------------------------------
   -.777E+01 -.704E+01 0.203E+02   -.167E-12 0.272E-12 0.192E-12   0.777E+01 0.703E+01 -.203E+02   -.721E-02 -.752E-02 -.493E-05
 
 
 POSITION                                       TOTAL-FORCE (eV/Angst)
 -----------------------------------------------------------------------------------
     12.76050      7.17127     14.59490         0.008921      0.010424     -0.202480
      4.59738      3.38293      6.79528        -0.060450     -0.094800      0.076309
      9.07156     10.19220      6.57855         0.075199     -0.099616      0.066458
     15.81330      9.45007      9.88167        -0.197389     -0.112110     -0.394556
      2.38216      8.92976     11.59110         0.181905      0.166362      0.186535
      9.48172      5.21674      5.46836         0.051782      0.055136     -0.143764
      9.61054     10.28350     13.85820         0.094983     -0.227392     -0.215640
     13.28090      2.94817     11.49890        -0.109382     -0.243469      0.053041
      6.50157      9.83431      3.86868         0.041396      0.043294     -0.172145
     14.41760     14.45490      3.16316        -0.040463      0.240750     -0.016816
      2.06120     12.06170      9.47735        -0.205426      0.235069     -0.218748
     14.81230      1.49432      1.28066         0.218489     -0.039971      0.008594
      4.78461      5.80111      3.71956        -0.125658      0.225025      0.096680
      2.77512     12.03580     14.73400         0.364554     -0.034421     -0.128541
      6.72543      6.94376      7.41248         0.060155      0.102558     -0.099795
     15.57910      4.17605      8.89651        -0.075311     -0.225442      0.074998
      7.43094      5.98171      1.38311        -0.174529      0.274170     -0.009006
     13.91120      4.86180      0.27101        -0.155764     -0.077796     -0.027191
     16.84020     13.07690      5.26931        -0.073068      0.079416      0.405770
     16.42070      9.04019     13.92950        -0.143648     -0.287865      0.092587
      3.85241      8.45383      1.14932        -0.109718      0.021242      0.090613
      2.88713      2.59747      3.48758        -0.128651      0.004624     -0.019802
     10.25720     12.85050     16.23580         0.266382     -0.081730      0.142821
     16.29570      0.33783     10.11750         0.069503      0.070360      0.034365
      2.82178     11.63590      3.18128         0.188889     -0.066790      0.059722
     15.16090     12.65210     12.86260        -0.026636      0.008197     -0.009070
     15.04340      6.09016     11.94960         0.161290     -0.079217     -0.143969
      5.43351     15.38120     13.63230        -0.171065      0.085339      0.073470
     10.10150      4.71117      9.32913        -0.008477     -0.042754     -0.026672
     12.57870      1.32879      9.34538         0.044540      0.189512      0.036695
      5.41854      9.32158     16.20040         0.129530     -0.167409     -0.071159
      3.49612      5.82032      9.47382         0.078430      0.049998      0.225960
     12.42910      2.66334      3.93253         0.087320      0.038321     -0.126493
      5.59339     11.20280     12.24310         0.061140     -0.261413      0.349071
      4.89544     16.20560      1.51538         0.115100     -0.223654      0.412251
      9.79957      0.95850      6.34920        -0.185018     -0.068405      0.056842
      3.89552      5.99950     13.78070         0.402829      0.046878      0.095869
      0.61594     13.46440     15.73160         0.133703      0.089279      0.128672
     11.74940      6.86881      3.70282        -0.053117     -0.101266      0.054556
      8.30957      2.25936      0.30145         0.029226     -0.225720      0.271063
     10.10980     13.30980      3.41913        -0.017354      0.134127     -0.095134
      9.59177     10.32690     10.26920         0.403094     -0.166407     -0.027128
      9.30573     13.99390     12.29090         0.044295      0.163858     -0.010178
      8.83249      7.48109     15.10360         0.071324      0.292441      0.010115
      1.00027      5.39897      5.44403        -0.217880      0.348074     -0.214169
      7.77313     15.46200      8.89028        -0.032601      0.124496     -0.096614
      5.85521     13.48080      5.71529        -0.024256      0.118283     -0.317586
     11.34540      8.59885      1.28835        -0.238104     -0.262805      0.213124
     14.64310     16.50300     14.01640         0.066003      0.116268      0.009882
     13.03150      9.25717      4.75455        -0.082585     -0.253798      0.433037
      2.68933     16.11760      5.46425         0.124450     -0.415529     -0.099583
      7.41668     15.07320      0.28167         0.189999     -0.143922     -0.241171
     13.58170     15.54150      6.70621         0.242265      0.010672      0.166845
      1.79089      6.22909     11.62210        -0.131544     -0.143821      0.329252
      3.31813      2.23122     15.34660        -0.308360      0.008208     -0.177854
      5.45576      2.08988      0.94474         0.062007      0.194474      0.149509
     15.07940     11.51510      6.79804         0.181348     -0.032151     -0.030558
     13.24210     10.44740      8.91387        -0.241275     -0.436551      0.355134
     10.45720      4.14691     13.76030         0.159229      0.038723     -0.188406
      6.58341      3.93093     10.50590        -0.020713     -0.126220      0.117488
     16.24020      7.60819      1.75037         0.084310     -0.130215      0.016291
      1.14658      0.57234     16.34530         0.044059      0.288389      0.122376
     11.73830     16.07260      0.77855         0.231235     -0.074226      0.153141
     10.61330     15.75370     14.97460        -0.407676      0.040606     -0.177495
      4.93635     11.98400     16.30190         0.008464      0.180962      0.129614
      3.96008      3.13806      9.55045        -0.085777     -0.082957     -0.028420
     11.42150      3.18129      7.38216        -0.004128      0.067684     -0.004636
      8.42030     12.27460      1.24218         0.058428     -0.037674     -0.070149
      7.63128      0.34156     15.22140         0.306622      0.253230     -0.015462
      7.12796      1.03748      7.79826         0.016331     -0.020140      0.236082
     15.31490      1.93264      3.81090         0.304960     -0.167325     -0.059680
     12.94110     13.07770      5.24702        -0.253145      0.049670      0.016564
      4.68727      5.86029      0.87197         0.250027     -0.152777      0.105730
      1.97412      0.41992      2.23228        -0.245877     -0.135058      0.213596
      5.48293     12.43150      2.96543        -0.193299     -0.054775      0.004639
      1.54284     13.80080      1.93325        -0.106714      0.060630     -0.107096
     14.93480      1.30527      7.87100        -0.073964      0.070086     -0.130675
      8.60655     14.26740      5.99737        -0.036207     -0.000758     -0.008568
      1.96774      4.75896     15.48930        -0.062028     -0.051104     -0.037973
      9.32226      2.91341      3.95764        -0.353291      0.033687     -0.233919
     16.13570      3.02424     11.33900         0.025072      0.233122     -0.056582
     15.39970      6.96366     15.85570         0.110186      0.095781     -0.113395
      2.52666     12.84030      5.68656         0.212868      0.185224      0.137721
      3.58949     15.62860     15.91930        -0.188440     -0.348986     -0.446411
      5.40927      3.63173     13.29950        -0.040277      0.131679     -0.268688
     14.07290      8.68438     12.36300         0.044915      0.179335      0.080226
     16.22160     12.26460      2.74081         0.283935      0.124280     -0.262358
     15.62530     11.32900     15.30110        -0.150616     -0.015411      0.014411
     13.41430      4.45540     13.95280        -0.102800      0.235810      0.227444
      3.61195      6.04603      6.67752         0.118813      0.175056     -0.588856
      7.76346      4.71726     15.63130        -0.175092      0.023386     -0.130650
      2.09088      2.17336      6.00901        -0.003749      0.194270      0.079129
      1.89419      1.27429     12.98180         0.214247     -0.060962      0.144023
     11.27000      6.03558     16.90030         0.110059      0.257111      0.082646
      7.68886      4.34336      7.54372        -0.079413      0.145060      0.105462
     10.08190      2.70596     11.25870        -0.073049      0.093084     -0.126207
      6.41638     10.48640      6.61370        -0.063915     -0.030562      0.057140
     10.61980     11.87470      8.05752        -0.217582     -0.017700      0.081690
     11.59790     10.47580     15.70440         0.052212      0.111065     -0.147872
      2.78621      9.35080     14.23730         0.051236     -0.112367     -0.060615
     12.29460     13.23340      1.36418        -0.009521      0.123977     -0.122597
      0.09960     14.65110     13.14720        -0.081131     -0.140016     -0.162668
      3.15929     16.21800      8.35284         0.361308     -0.104648      0.184244
      7.94826     12.52530     14.33700        -0.258761      0.156273      0.069279
      7.65482      8.68851      0.81212         0.100732      0.150337      0.106000
      0.62563     10.31410      7.84055         0.294912     -0.092606      0.015175
     14.99890     15.95460      0.39326        -0.139982     -0.039730      0.090334
      0.45658     10.89360     11.52780        -0.091555     -0.013441      0.325920
     16.26600     15.66480      5.16316        -0.193596      0.084901     -0.195740
     14.09550      9.58972      1.93880         0.051820      0.187096     -0.218634
     13.97790     16.29400     11.15990         0.231141     -0.139324     -0.103359
      5.94732      6.74107     10.25420         0.111221      0.019282      0.182691
      9.95216     10.37290      4.07868        -0.103964     -0.139984     -0.168783
      6.42557      8.32868     13.77440        -0.032799     -0.154528     -0.052520
      5.56882      2.96081      3.77201         0.218538     -0.117911     -0.282919
     11.11210     16.12110      8.45857        -0.121496     -0.163629      0.166197
      0.52981     14.58320      9.10153        -0.007922     -0.109228     -0.374308
     11.98310     16.74630      4.47126         0.084416     -0.116018     -0.325843
      3.91730      8.73486      3.85259         0.172460     -0.068733      0.118860
      7.37512      6.78973      4.30079         0.077925     -0.238617      0.105563
      5.05786     14.15130      8.74219        -0.180353      0.291217      0.306934
      5.45695     16.31520      4.74010        -0.146186     -0.087173      0.079378
      1.71947      4.87185      2.75060        -0.059134      0.153696      0.208307
      9.13768     16.28380      2.18581        -0.064033     -0.022755      0.037567
     10.33090      6.78841     12.64690        -0.064125     -0.144775     -0.036721
     13.21820      5.24102      9.99236        -0.051356      0.007097     -0.131110
      4.24042      9.99143      9.94384         0.194915     -0.214001     -0.085939
     14.85230     13.44460      8.96760        -0.249568      0.063245      0.059034
      4.33523      0.31196     11.96120         0.135357     -0.208613      0.124651
     14.15990      5.48752      3.04036        -0.179311      0.038177      0.035486
     11.37350     11.57670     12.12440        -0.002153     -0.289508     -0.227303
      7.65623     16.36310     11.71910        -0.155484     -0.096662      0.008609
     16.72380      6.87039      9.59916        -0.182536      0.153589     -0.453468
     13.05050     14.18230     14.25170         0.227345     -0.307446      0.118582
      0.58358      8.20995      4.52759         0.233516     -0.287366     -0.012896
      3.65244     13.34980     12.49300        -0.147788      0.227854     -0.085980
     15.12230      7.72965      6.06703         0.132926     -0.026379      0.320098
      9.39690      7.78346      7.74351        -0.394920      0.048995      0.088174
     12.23750      2.32272      1.03266        -0.049649      0.075728      0.098912
     16.31300      2.99757     16.69510        -0.086532     -0.056894     -0.118978
     12.57900      7.93959      7.63429         0.133216      0.528864     -0.019231
     12.17980      1.14924     14.43060        -0.263049      0.209342      0.139403
      1.38355      9.29236      0.53578         0.095837      0.049618      0.013991
      7.53292     12.37180     10.36500        -0.202456      0.231353     -0.109708
 -----------------------------------------------------------------------------------
    total drift:                               -0.002252     -0.010487     -0.010067


--------------------------------------------------------------------------------------------------------



  FREE ENERGIE OF THE ION-ELECTRON SYSTEM (eV)
  ---------------------------------------------------
  free  energy   TOTEN  =      -522.54941862 eV

  energy  without entropy=     -522.48711156  energy(sigma->0) =     -522.51826509
 


--------------------------------------------------------------------------------------------------------


    POTLOK:  cpu time    0.2082: real time    0.2082


--------------------------------------------------------------------------------------------------------


     LOOP+:  cpu time  141.0897: real time  141.5730
    4ORBIT:  cpu time    0.0000: real time    0.0000

 total amount of memory used by VASP MPI-rank0   141799. kBytes
=======================================================================

   base      :      30000. kBytes
   nonlr-proj:       3976. kBytes
   fftplans  :       8669. kBytes
   grid      :      14958. kBytes
   one-center:        292. kBytes
   wavefun   :      83904. kBytes
 
  
  
 General timing and accounting informations for this job:
 ========================================================
  
                  Total CPU time used (sec):      158.512
                            User time (sec):      152.449
                          System time (sec):        6.062
                         Elapsed time (sec):      159.494
  
                   Maximum memory used (kb):      796848.
                   Average memory used (kb):           0.
  
                          Minor page faults:        50653
                          Major page faults:            0
                 Voluntary context switches:         2421
