 vasp.6.0.8 29Jun18 (build Mar 14 2019 11:44:20) complex                        
  
 executed on             LinuxIFC date 2021.03.13  22:23:42
 running   64 mpi-ranks, with    1 threads/rank
 distrk:  each k-point on   16 cores,    4 groups
 distr:  one band on NCORES_PER_BAND=   4 cores,    4 groups


--------------------------------------------------------------------------------------------------------


 INCAR:
 POTCAR:    PAW_PBE Ge 05Jan2001                  
 POTCAR:    PAW_PBE Sb 06Sep2000                  
 POTCAR:    PAW_PBE Te 08Apr2002                  
 POTCAR:    PAW_PBE Ge 05Jan2001                  
   VRHFIN =Ge: s2p2                                                             
   LEXCH  = PE                                                                  
   EATOM  =   104.9960 eV,    7.7170 Ry                                         
                                                                                
   TITEL  = PAW_PBE Ge 05Jan2001                                                
   LULTRA =        F    use ultrasoft PP ?                                      
   IUNSCR =        1    unscreen: 0-lin 1-nonlin 2-no                           
   RPACOR =    2.170    partial core radius                                     
   POMASS =   72.610; ZVAL   =    4.000    mass and valenz                      
   RCORE  =    2.300    outmost cutoff radius                                   
   RWIGS  =    2.300; RWIGS  =    1.217    wigner-seitz radius (au A)           
   ENMAX  =  173.807; ENMIN  =  130.355 eV                                      
   ICORE  =        3    local potential                                         
   LCOR   =        T    correct aug charges                                     
   LPAW   =        T    paw PP                                                  
   EAUG   =  385.843                                                            
   DEXC   =    0.000                                                            
   RMAX   =    2.342    core radius for proj-oper                               
   RAUG   =    1.300    factor for augmentation sphere                          
   RDEP   =    2.318    radius for radial grids                                 
   RDEPT  =    2.103    core radius for aug-charge                              
                                                                                
   Atomic configuration                                                         
   10 entries                                                                   
     n  l   j            E        occ.                                          
     1  0  0.50    -10959.8463   2.0000                                         
     2  0  0.50     -1371.6056   2.0000                                         
     2  1  1.50     -1198.4791   6.0000                                         
     3  0  0.50      -168.4733   2.0000                                         
     3  1  1.50      -115.6019   6.0000                                         
     3  2  2.50       -29.3106  10.0000                                         
     4  0  0.50       -11.7309   2.0000                                         
     4  1  0.50        -3.8952   2.0000                                         
     4  2  1.50        -4.0817   0.0000                                         
     4  3  2.50        -4.0817   0.0000                                         
   Description                                                                  
     l       E           TYP  RCUT    TYP  RCUT                                 
     0    -11.7309493     23  2.300                                             
     0     -7.4578696     23  2.300                                             
     1     -3.8952261     23  2.300                                             
     1      6.1178114     23  2.300                                             
     2     -4.0817478     23  2.300                                             
     3     -1.3605826      7  2.300                                             
  local pseudopotential read in
  partial core-charges read in
  partial kinetic energy density read in
  atomic valenz-charges read in
  non local Contribution for L=           0  read in
    real space projection operators read in
  non local Contribution for L=           0  read in
    real space projection operators read in
  non local Contribution for L=           1  read in
    real space projection operators read in
  non local Contribution for L=           1  read in
    real space projection operators read in
  non local Contribution for L=           2  read in
    real space projection operators read in
    PAW grid and wavefunctions read in
 
   number of l-projection  operators is LMAX  =           5
   number of lm-projection operators is LMMAX =          13
 
 POTCAR:    PAW_PBE Sb 06Sep2000                  
   VRHFIN =Sb: s2p3                                                             
   LEXCH  = PE                                                                  
   EATOM  =   149.9515 eV,   11.0211 Ry                                         
                                                                                
   TITEL  = PAW_PBE Sb 06Sep2000                                                
   LULTRA =        F    use ultrasoft PP ?                                      
   IUNSCR =        1    unscreen: 0-lin 1-nonlin 2-no                           
   RPACOR =    2.200    partial core radius                                     
   POMASS =  121.750; ZVAL   =    5.000    mass and valenz                      
   RCORE  =    2.300    outmost cutoff radius                                   
   RWIGS  =    2.980; RWIGS  =    1.577    wigner-seitz radius (au A)           
   ENMAX  =  172.069; ENMIN  =  129.052 eV                                      
   ICORE  =        3    local potential                                         
   LCOR   =        T    correct aug charges                                     
   LPAW   =        T    paw PP                                                  
   EAUG   =  380.513                                                            
   DEXC   =    0.000                                                            
   RMAX   =    2.346    core radius for proj-oper                               
   RAUG   =    1.300    factor for augmentation sphere                          
   RDEP   =    2.360    radius for radial grids                                 
   RDEPT  =    2.192    core radius for aug-charge                              
                                                                                
   Atomic configuration                                                         
   13 entries                                                                   
     n  l   j            E        occ.                                          
     1  0  0.50    -30298.2797   2.0000                                         
     2  0  0.50     -4610.2252   2.0000                                         
     2  1  1.50     -4138.3407   6.0000                                         
     3  0  0.50      -903.8815   2.0000                                         
     3  1  1.50      -750.1337   6.0000                                         
     3  2  2.50      -515.7092  10.0000                                         
     4  0  0.50      -148.8034   2.0000                                         
     4  1  1.50      -101.7581   6.0000                                         
     4  2  2.50       -33.5048  10.0000                                         
     5  0  0.50       -12.8298   2.0000                                         
     5  1  0.50        -4.8276   3.0000                                         
     5  2  1.50        -4.0817   0.0000                                         
     4  3  2.50        -4.0817   0.0000                                         
   Description                                                                  
     l       E           TYP  RCUT    TYP  RCUT                                 
     0    -12.8297861     23  2.300                                             
     0     13.6058260     23  2.300                                             
     1     -4.8275512     23  2.300                                             
     1     -0.7245443     23  2.300                                             
     2     -4.0817478     23  2.300                                             
     3     -1.3605826     23  2.300                                             
  local pseudopotential read in
  partial core-charges read in
  partial kinetic energy density read in
  atomic valenz-charges read in
  non local Contribution for L=           0  read in
    real space projection operators read in
  non local Contribution for L=           0  read in
    real space projection operators read in
  non local Contribution for L=           1  read in
    real space projection operators read in
  non local Contribution for L=           1  read in
    real space projection operators read in
  non local Contribution for L=           2  read in
    real space projection operators read in
    PAW grid and wavefunctions read in
 
   number of l-projection  operators is LMAX  =           5
   number of lm-projection operators is LMMAX =          13
 
 POTCAR:    PAW_PBE Te 08Apr2002                  
   VRHFIN =Te: s2p4                                                             
   LEXCH  = PE                                                                  
   EATOM  =   223.2721 eV,   16.4100 Ry                                         
                                                                                
   TITEL  = PAW_PBE Te 08Apr2002                                                
   LULTRA =        F    use ultrasoft PP ?                                      
   IUNSCR =        1    unscreen: 0-lin 1-nonlin 2-no                           
   RPACOR =    2.200    partial core radius                                     
   POMASS =  127.600; ZVAL   =    6.000    mass and valenz                      
   RCORE  =    2.300    outmost cutoff radius                                   
   RWIGS  =    2.900; RWIGS  =    1.535    wigner-seitz radius (au A)           
   ENMAX  =  174.982; ENMIN  =  131.236 eV                                      
   ICORE  =        3    local potential                                         
   LCOR   =        T    correct aug charges                                     
   LPAW   =        T    paw PP                                                  
   EAUG   =  368.792                                                            
   DEXC   =    0.000                                                            
   RMAX   =    2.345    core radius for proj-oper                               
   RAUG   =    1.300    factor for augmentation sphere                          
   RDEP   =    2.397    radius for radial grids                                 
   RDEPT  =    2.174    core radius for aug-charge                              
                                                                                
   Atomic configuration                                                         
   13 entries                                                                   
     n  l   j            E        occ.                                          
     1  0  0.50    -31621.2075   2.0000                                         
     2  0  0.50     -4848.7941   2.0000                                         
     2  1  1.50     -4352.1960   6.0000                                         
     3  0  0.50      -964.9612   2.0000                                         
     3  1  1.50      -803.6179   6.0000                                         
     3  2  2.50      -559.8710  10.0000                                         
     4  0  0.50      -164.3522   2.0000                                         
     4  1  1.50      -114.3756   6.0000                                         
     4  2  2.50       -41.6483  10.0000                                         
     5  0  0.50       -15.1072   2.0000                                         
     5  1  0.50        -5.9526   4.0000                                         
     5  2  1.50        -5.4423   0.0000                                         
     4  3  2.50        -5.4423   0.0000                                         
   Description                                                                  
     l       E           TYP  RCUT    TYP  RCUT                                 
     0    -15.1072389     23  2.300                                             
     0    -16.4678215     23  2.300                                             
     1     -5.9526306     23  2.300                                             
     1     -2.4873968     23  2.300                                             
     2     -5.4423304     23  2.300                                             
     3     -1.3605826     23  2.300                                             
  local pseudopotential read in
  partial core-charges read in
  partial kinetic energy density read in
  atomic valenz-charges read in
  non local Contribution for L=           0  read in
    real space projection operators read in
  non local Contribution for L=           0  read in
    real space projection operators read in
  non local Contribution for L=           1  read in
    real space projection operators read in
  non local Contribution for L=           1  read in
    real space projection operators read in
  non local Contribution for L=           2  read in
    real space projection operators read in
    PAW grid and wavefunctions read in
 
   number of l-projection  operators is LMAX  =           5
   number of lm-projection operators is LMMAX =          13
 
 Optimization of the real space projectors (new method)

 maximal supplied QI-value         = 16.25
 optimisation between [QCUT,QGAM] = [  7.96, 16.09] = [ 17.76, 72.49] Ry 
 Optimized for a Real-space Cutoff    1.55 Angstroem

   l    n(q)    QCUT    max X(q) W(low)/X(q) W(high)/X(q)  e(spline) 
   0      7     7.963    65.336    0.33E-03    0.23E-03    0.68E-07
   0      7     7.963    52.220    0.32E-03    0.23E-03    0.67E-07
   1      7     7.963    36.409    0.30E-03    0.33E-04    0.20E-06
   1      7     7.963    21.334    0.30E-03    0.34E-04    0.20E-06
   2      6     7.963     4.673    0.38E-03    0.24E-03    0.57E-07
 Optimization of the real space projectors (new method)

 maximal supplied QI-value         = 16.25
 optimisation between [QCUT,QGAM] = [  7.96, 16.09] = [ 17.76, 72.49] Ry 
 Optimized for a Real-space Cutoff    1.55 Angstroem

   l    n(q)    QCUT    max X(q) W(low)/X(q) W(high)/X(q)  e(spline) 
   0      7     7.963    19.000    0.32E-03    0.28E-03    0.63E-07
   0      7     7.963     9.057    0.39E-03    0.35E-03    0.76E-07
   1      7     7.963   125.345    0.39E-03    0.19E-03    0.18E-06
   1      7     7.963    79.963    0.38E-03    0.19E-03    0.18E-06
   2      6     7.963     6.963    0.32E-03    0.22E-03    0.46E-07
 Optimization of the real space projectors (new method)

 maximal supplied QI-value         = 16.25
 optimisation between [QCUT,QGAM] = [  7.96, 16.09] = [ 17.76, 72.49] Ry 
 Optimized for a Real-space Cutoff    1.55 Angstroem

   l    n(q)    QCUT    max X(q) W(low)/X(q) W(high)/X(q)  e(spline) 
   0      7     7.963   224.858    0.39E-03    0.38E-03    0.70E-07
   0      7     7.963   205.313    0.39E-03    0.38E-03    0.71E-07
   1      7     7.963   119.695    0.39E-03    0.18E-03    0.18E-06
   1      7     7.963    84.282    0.39E-03    0.18E-03    0.18E-06
   2      6     7.963     5.599    0.31E-03    0.21E-03    0.46E-07
  PAW_PBE Ge 05Jan2001                  :
 energy of atom  1       EATOM= -104.9960
 kinetic energy error for atom=    0.0013 (will be added to EATOM!!)
  PAW_PBE Sb 06Sep2000                  :
 energy of atom  2       EATOM= -149.9515
 kinetic energy error for atom=    0.0023 (will be added to EATOM!!)
  PAW_PBE Te 08Apr2002                  :
 energy of atom  3       EATOM= -223.2721
 kinetic energy error for atom=    0.0032 (will be added to EATOM!!)
 
 
 POSCAR: (Converted from LAMMPS) LAMMPS data file
  positions in direct lattice
  velocities in cartesian coordinates
 exchange correlation table for  LEXCH =        8
   RHO(1)=    0.500       N(1)  =     2000
   RHO(2)=  100.500       N(2)  =     4000
 


--------------------------------------------------------------------------------------------------------


 ion  position               nearest neighbor table
   1  0.426  0.306  0.042-   3 2.75  72 2.80 138 2.83 142 2.90
   2  0.159  0.129  0.084-  66 2.60  81 2.67  79 2.67 143 2.71
   3  0.310  0.283  0.153-  79 2.70   1 2.75  82 2.77  86 2.82
   4  0.068  0.308  0.133-  86 2.79  66 2.81  81 2.82
   5  0.185  0.969  0.206-  95 2.71  85 2.75  83 2.81  79 3.26 143 3.26
   6  0.563  0.806  0.168-  75 2.78  94 2.84  76 2.84  80 3.23
   7  0.736  0.679  0.249-  94 2.74  93 2.80  96 2.81  77 2.97
   8  0.458  0.662  0.278-  76 2.78  89 2.82  87 2.90  94 3.14
   9  0.145  0.191  0.306- 101 2.84  81 2.88  95 3.01  86 3.07 103 3.21  79 3.22
  10  0.288  0.947  0.401-  85 2.78  92 2.87  95 2.93 100 3.05 114 3.19
  11  0.058  0.390  0.366- 101 2.72  88 2.81 106 3.01  86 3.16
  12  0.072  0.735  0.400- 105 2.75  99 2.82 112 3.02  84 3.26
  13  0.276  0.589  0.402-  87 2.68  99 2.71 102 2.74  50 2.94
  14  0.021  0.917  0.417-  91 2.80 108 2.82  95 2.97 113 3.15
  15  0.760  0.776  0.438-  97 2.86  93 2.86 113 2.90  94 3.29
  16  0.688  0.200  0.562- 107 2.78 109 2.91  98 2.95 125 3.15 117 3.17  52 3.22
  17  0.489  0.891  0.557- 111 2.62 116 2.65 119 2.66 100 2.67
  18  0.066  0.551  0.540- 106 2.76 115 2.76  99 2.77 112 3.00
  19  0.560  0.674  0.577- 116 2.68 110 2.73 124 2.76  50 3.05
  20  0.147  0.131  0.587- 103 2.71 114 2.78 108 2.84 118 3.26
  21  0.113  0.759  0.612- 105 2.68 112 2.75 122 2.81  59 2.95
  22  0.820  0.124  0.684- 125 2.68 117 2.73 107 2.79  60 2.83  55 3.32
  23  0.122  0.395  0.721- 123 2.75 115 2.76 131 2.97
  24  0.455  0.793  0.788- 130 2.71 119 2.74 124 2.91
  25  0.463  0.297  0.809- 138 2.71 128 2.78 121 2.82
  26  0.739  0.055  0.837- 140 2.77 133 2.77 144 2.83
  27  0.078  0.858  0.836-  28 2.65 122 2.75 132 2.84 135 3.19  35 3.35
  28  0.108  0.001  0.886-  27 2.65 143 2.68 129 2.70  63 2.75
  29  0.785  0.298  0.908- 136 2.75 140 2.76  73 2.88 125 3.22
  30  0.305  0.142  0.916- 138 2.79 127 2.87  67 2.88 129 3.23
  31  0.694  0.445  0.913- 126 2.81 139 2.83 141 2.89 142 3.12
  32  0.831  0.876  0.976- 134 2.83 144 2.87 137 3.00  74 3.01  75 3.27
  33  0.614  0.154  0.008- 142 2.88  41 3.00 140 3.04  67 3.10 133 3.28 144 3.54
  34  0.766  0.651  0.997- 141 2.95  77 3.00  75 3.05 139 3.10 137 3.20  68 3.34
  35  0.048  0.849  0.031-  68 2.89  83 2.89  74 2.97  27 3.35  69 3.46 143 3.47
  36  0.900  0.468  0.053-  77 2.85  73 2.87 139 2.92  88 3.49
  37  0.570  0.522  0.107-  72 2.87  76 2.88 141 3.09  89 3.23  39 3.73
  38  0.388  0.981  0.115-  80 2.87  65 2.94  67 2.99  85 3.33  79 3.45
  39  0.684  0.343  0.149-  73 2.90  41 2.95  90 2.99 142 3.34  37 3.73
  40  0.023  0.630  0.171-  71 2.85  68 2.96  84 3.00  88 3.44
  41  0.628  0.185  0.181-  78 2.85  39 2.95  33 3.00  98 3.73
  42  0.385  0.447  0.243-  89 2.87  82 2.89 102 3.07  72 3.23  87 3.26
  43  0.798  0.919  0.258-  91 2.84  93 2.90  97 2.92  78 3.63
  44  0.813  0.189  0.335-  78 2.87  90 2.88  98 3.01 101 3.39 107 3.44  91 3.62
  45  0.914  0.565  0.359-  96 2.82 106 2.87  88 2.92  99 3.54
  46  0.515  0.006  0.374-  92 2.88 100 2.92  80 3.04 111 3.19  97 3.46  98 3.58
  47  0.619  0.327  0.383- 109 2.84  98 2.87  90 3.07 104 3.09
  48  0.813  0.012  0.494- 117 2.92  97 2.99 107 3.03 113 3.16  91 3.34  55 3.60 108 3.65
  49  0.364  0.150  0.519-  92 2.93 103 2.94 114 3.05 104 3.10 111 3.30 121 3.40
  50  0.399  0.652  0.504- 120 2.82  13 2.94  51 3.02  19 3.05
  51  0.435  0.481  0.509- 102 2.88  50 3.02  54 3.05  53 3.28 104 3.36
  52  0.530  0.282  0.623- 104 2.86 121 2.90  53 2.95  16 3.22 109 3.47
  53  0.554  0.449  0.654- 128 2.88  52 2.95 126 2.95  51 3.28 109 3.46
  54  0.332  0.458  0.654- 120 2.98  51 3.05 128 3.09 115 3.19 121 3.32
  55  0.951  0.986  0.651- 108 2.88 122 2.89  60 2.95  22 3.32 113 3.40 134 3.45  48 3.60
  56  0.891  0.349  0.717- 136 2.82 118 2.93 123 3.03 125 3.23
  57  0.697  0.624  0.746- 110 2.85 124 2.91 126 2.98 137 3.33 141 3.71
  58  0.267  0.985  0.738- 114 2.88 127 2.91 129 2.93 122 3.40 119 3.49 132 3.57
  59  0.163  0.662  0.745- 132 2.90 135 2.92  21 2.95 131 3.11 120 3.39
  60  0.973  0.127  0.748-  22 2.83 118 2.87  55 2.95  63 3.31 129 3.41
  61  0.501  0.003  0.886- 133 2.90 127 2.91 130 3.01  67 3.17  65 3.48 144 3.64
  62  0.040  0.517  0.880- 131 2.89 135 2.89 123 2.94 139 3.40  71 3.50
  63  0.968  0.067  0.932-  28 2.75 134 2.88  74 2.90  60 3.31 140 3.45
  64  0.627  0.821  0.923- 137 2.85 144 2.89 130 3.02  75 3.25
  65  0.419  0.857  0.001-  38 2.94  70 2.94  61 3.48
  66  0.145  0.252  0.998-   2 2.60   4 2.81
  67  0.437  0.116  0.017-  30 2.88  38 2.99  33 3.10  61 3.17
  68  0.935  0.727  0.059-  35 2.89  40 2.96  34 3.34
  69  0.177  0.703  0.979-  71 2.87  70 2.91 132 3.31  35 3.46 135 3.46
  70  0.286  0.783  0.082-  69 2.91  65 2.94  85 3.38  84 3.45
  71  0.128  0.564  0.059-  40 2.85  69 2.87  62 3.50
  72  0.419  0.468  0.057-   1 2.80  37 2.87  42 3.23
  73  0.831  0.316  0.069-  36 2.87  29 2.88  39 2.90 140 3.53
  74  0.939  0.976  0.072-  63 2.90  35 2.97  32 3.01  83 3.56
  75  0.706  0.787  0.093-   6 2.78  34 3.05  64 3.25  32 3.27
  76  0.488  0.667  0.118-   8 2.78   6 2.84  37 2.88
  77  0.788  0.554  0.141-  36 2.85   7 2.97  34 3.00
  78  0.779  0.117  0.187-  41 2.85  44 2.87  43 3.63
  79  0.277  0.133  0.185-   2 2.67   3 2.70   9 3.22   5 3.26  38 3.45  92 3.47
  80  0.533  0.989  0.198-  38 2.87  46 3.04   6 3.23
  81  0.039  0.154  0.182-   2 2.67   4 2.82   9 2.88 101 3.61
  82  0.443  0.290  0.244-   3 2.77  42 2.89
  83  0.058  0.864  0.199-   5 2.81  84 2.88  35 2.89  74 3.56
  84  0.155  0.731  0.228-  83 2.88  40 3.00  87 3.21  12 3.26  70 3.45  85 3.59
  85  0.304  0.875  0.256-   5 2.75  10 2.78  38 3.33  70 3.38 100 3.58  84 3.59
  86  0.186  0.350  0.237-   4 2.79   3 2.82   9 3.07  11 3.16
  87  0.298  0.614  0.249-  13 2.68   8 2.90  84 3.21  42 3.26
  88  0.969  0.452  0.244-  11 2.81  45 2.92  40 3.44  36 3.49
  89  0.529  0.516  0.293-   8 2.82  42 2.87  37 3.23
  90  0.777  0.348  0.297-  44 2.88  39 2.99  47 3.07
  91  0.919  0.008  0.329-  14 2.80  43 2.84  48 3.34  44 3.62 108 3.67
  92  0.369  0.087  0.360-  10 2.87  46 2.88  49 2.93  79 3.47
  93  0.860  0.770  0.303-   7 2.80  15 2.86  43 2.90
  94  0.612  0.754  0.318-   7 2.74   6 2.84   8 3.14  15 3.29  97 3.54
  95  0.143  0.022  0.351-   5 2.71  10 2.93  14 2.97   9 3.01 108 3.47
  96  0.750  0.572  0.372-   7 2.81  45 2.82 110 3.68
  97  0.698  0.924  0.397-  15 2.86  43 2.92  48 2.99  46 3.46  94 3.54
  98  0.649  0.164  0.397-  47 2.87  16 2.95  44 3.01  46 3.58  41 3.73
  99  0.118  0.579  0.389-  13 2.71  18 2.77  12 2.82  45 3.54
 100  0.441  0.858  0.413-  17 2.67  46 2.92  10 3.05  85 3.58
 101  0.001  0.242  0.370-  11 2.72   9 2.84  44 3.39  81 3.61
 102  0.311  0.434  0.406-  13 2.74  51 2.88  42 3.07
 103  0.215  0.223  0.477-  20 2.71  49 2.94   9 3.21
 104  0.464  0.292  0.470-  52 2.86  47 3.09  49 3.10  51 3.36
 105  0.198  0.789  0.483-  21 2.68  12 2.75
 106  0.946  0.459  0.484-  18 2.76  45 2.87  11 3.01
 107  0.847  0.180  0.533-  16 2.78  22 2.79  48 3.03  44 3.44
 108  0.022  0.051  0.512-  14 2.82  20 2.84  55 2.88  95 3.47  48 3.65  91 3.67
 109  0.690  0.365  0.528-  47 2.84  16 2.91  53 3.46  52 3.47
 110  0.708  0.618  0.579-  19 2.73  57 2.85  96 3.68
 111  0.516  0.041  0.558-  17 2.62  46 3.19  49 3.30 117 3.46
 112  0.978  0.701  0.547-  21 2.75 113 3.00  18 3.00  12 3.02
 113  0.888  0.847  0.524-  15 2.90 112 3.00  14 3.15  48 3.16  55 3.40
 114  0.259  0.016  0.573-  20 2.78  58 2.88  49 3.05  10 3.19
 115  0.168  0.432  0.570-  18 2.76  23 2.76  54 3.19
 116  0.623  0.817  0.574-  17 2.65  19 2.68
 117  0.706  0.029  0.627-  22 2.73  48 2.92  16 3.17 111 3.46
 118  0.015  0.253  0.647-  60 2.87  56 2.93  20 3.26
 119  0.379  0.838  0.655-  17 2.66  24 2.74  58 3.49 120 3.63
 120  0.338  0.631  0.657-  50 2.82  54 2.98  59 3.39 124 3.54 119 3.63
 121  0.369  0.271  0.676-  25 2.82  52 2.90  54 3.32  49 3.40
 122  0.094  0.905  0.683-  27 2.75  21 2.81  55 2.89  58 3.40
 123  0.995  0.492  0.716-  23 2.75  62 2.94  56 3.03
 124  0.529  0.651  0.734-  19 2.76  24 2.91  57 2.91 120 3.54
 125  0.734  0.244  0.735-  22 2.68  16 3.15  29 3.22  56 3.23 133 3.42 126 3.62
 126  0.699  0.451  0.748-  31 2.81  53 2.95  57 2.98 125 3.62
 127  0.395  0.087  0.784-  30 2.87  61 2.91  58 2.91 133 3.55
 128  0.452  0.456  0.789-  25 2.78  53 2.88  54 3.09
 129  0.167  0.113  0.791-  28 2.70  58 2.93  30 3.23  60 3.41
 130  0.576  0.893  0.771-  24 2.71  61 3.01  64 3.02
 131  0.201  0.506  0.827-  62 2.89  23 2.97  59 3.11
 132  0.231  0.798  0.819-  27 2.84  59 2.90  69 3.31  58 3.57
 133  0.596  0.126  0.819-  26 2.77  61 2.90  33 3.28 125 3.42 127 3.55
 134  0.900  0.943  0.842-  32 2.83  63 2.88  55 3.45
 135  0.026  0.681  0.847-  62 2.89  59 2.92  27 3.19  69 3.46
 136  0.941  0.308  0.868-  29 2.75  56 2.82
 137  0.769  0.769  0.852-  64 2.85  32 3.00  34 3.20  57 3.33
 138  0.335  0.301  0.905-  25 2.71  30 2.79   1 2.83
 139  0.843  0.518  0.900-  31 2.83  36 2.92  34 3.10  62 3.40
 140  0.786  0.147  0.961-  29 2.76  26 2.77  33 3.04  63 3.45 144 3.47  73 3.53
 141  0.614  0.589  0.945-  31 2.89  34 2.95  37 3.09  57 3.71
 142  0.586  0.317  0.983-  33 2.88   1 2.90  31 3.12  39 3.34
 143  0.193  0.991  0.017-  28 2.68   2 2.71   5 3.26  35 3.47
 144  0.693  0.969  0.971-  26 2.83  32 2.87  64 2.89 140 3.47  33 3.54  61 3.64
 
  LATTYP: Found a triclinic cell.
 ALAT       =    24.2129709178
 B/A-ratio  =     0.7059063224
 C/A-ratio  =     1.0005772684
 COS(alpha) =     0.0012932029
 COS(beta)  =     0.5068042722
 COS(gamma) =     0.7017185296
  
  Lattice vectors:
  
 A1 = ( -16.9906903505, -17.2506348312,   0.0000000000)
 A2 = ( -17.0920892540,   0.0000000000,   0.0000000000)
 A3 = (  -0.0313303598, -17.2029786346, -17.0587680826)


Analysis of symmetry for initial positions (statically):
=====================================================================
 Subroutine PRICEL returns:
 Original cell was already a primitive cell.
 

 Routine SETGRP: Setting up the symmetry group for a 
 triclinic supercell.


 Subroutine GETGRP returns: Found  1 space group operations
 (whereof  1 operations were pure point group operations)
 out of a pool of  2 trial point group operations.


The static configuration has the point symmetry C_1 .


Analysis of symmetry for dynamics (positions and initial velocities):
=====================================================================
 Subroutine PRICEL returns:
 Original cell was already a primitive cell.
 

 Routine SETGRP: Setting up the symmetry group for a 
 triclinic supercell.


 Subroutine GETGRP returns: Found  1 space group operations
 (whereof  1 operations were pure point group operations)
 out of a pool of  2 trial point group operations.


The dynamic configuration has the point symmetry C_1 .


 Subroutine INISYM returns: Found  1 space group operations
 (whereof  1 operations are pure point group operations),
 and found     1 'primitive' translations


----------------------------------------------------------------------------------------

                                     Primitive cell                                     

  volume of cell :    5029.7674

  direct lattice vectors                    reciprocal lattice vectors
    17.092089254  0.000000000  0.000000000     0.058506598  0.000343901 -0.000454262
    -0.101398904 17.250634831  0.000000000     0.000000000  0.057968881  0.000161945
     0.132729263 -0.047656197 17.058768083     0.000000000  0.000000000  0.058620880

  length of vectors
    17.092089254 17.250932839 17.059351004     0.058509372  0.057969107  0.058620880

  position of ions in fractional coordinates (direct lattice)
     0.426460861  0.306222357  0.042447736
     0.158685776  0.129006871  0.084165310
     0.310300538  0.282562116  0.152501366
     0.067970157  0.308012785  0.132825699
     0.184576793  0.968879928  0.206438677
     0.562628605  0.806020598  0.168497117
     0.735548246  0.678513211  0.249261313
     0.458457587  0.661927259  0.278084105
     0.145100202  0.190724988  0.306364554
     0.287977075  0.947356743  0.401287501
     0.057680985  0.389774181  0.366235248
     0.071567282  0.734814796  0.400362306
     0.276424159  0.588574431  0.401772970
     0.021163509  0.917064174  0.417052914
     0.759970490  0.776429758  0.438412028
     0.687870012  0.199726284  0.561979062
     0.488898781  0.891347592  0.557257021
     0.065820353  0.550972353  0.539796674
     0.559714260  0.674427905  0.576928614
     0.146896945  0.130678198  0.586724014
     0.112816030  0.758606723  0.612086747
     0.819995613  0.124287313  0.684302332
     0.122101958  0.394805219  0.720979694
     0.454741811  0.792582785  0.788321956
     0.462940354  0.296898823  0.809311978
     0.739379874  0.054585129  0.837266523
     0.078034548  0.858253854  0.836451734
     0.107832311  0.001257860  0.886195393
     0.785197277  0.298205971  0.907736314
     0.305303155  0.141597162  0.916247061
     0.693978205  0.445448355  0.912535564
     0.830940491  0.875581878  0.976433291
     0.614492682  0.154456943  0.007855727
     0.766241640  0.650758070  0.996625347
     0.048407690  0.848852076  0.030640294
     0.899741990  0.468081547  0.052630395
     0.570346772  0.522106925  0.107460993
     0.387750234  0.980844044  0.114754640
     0.684062794  0.343499763  0.149169051
     0.023184996  0.630229361  0.170888635
     0.628189105  0.184617792  0.180729585
     0.384758791  0.446733368  0.242533423
     0.798155488  0.919378614  0.257978631
     0.812755881  0.188995426  0.334992252
     0.914025780  0.564896558  0.358579155
     0.515088425  0.005821198  0.374110478
     0.619302591  0.326990657  0.382915987
     0.812896236  0.011867523  0.494395573
     0.363611693  0.149982511  0.519143643
     0.398777548  0.652049347  0.504343986
     0.435280468  0.480955087  0.508537009
     0.530207618  0.282100025  0.623497765
     0.554392526  0.448595387  0.654243624
     0.332122315  0.458485056  0.653584466
     0.950733933  0.986498208  0.650792852
     0.891144640  0.348594299  0.716681032
     0.696510963  0.623542370  0.745833127
     0.266807236  0.985374415  0.738447299
     0.162700485  0.662330820  0.745032474
     0.972819654  0.126847897  0.747627944
     0.501073423  0.002921845  0.885737964
     0.040293225  0.517354060  0.879675392
     0.968313725  0.066738962  0.931832905
     0.627368435  0.820842318  0.923412531
     0.419460562  0.856684431  0.000971033
     0.145005930  0.252108513  0.997826376
     0.436999931  0.116365018  0.017299137
     0.935225845  0.726756626  0.058907289
     0.177107867  0.702905906  0.978841152
     0.286204899  0.782747953  0.082098268
     0.127875701  0.564472516  0.058822438
     0.419485356  0.467797943  0.057498396
     0.831348645  0.316358237  0.068979346
     0.938908726  0.975921734  0.071673510
     0.706029766  0.787453339  0.092785393
     0.488040215  0.667074976  0.117695849
     0.787646011  0.554175740  0.140675818
     0.779426052  0.116848431  0.187395005
     0.277380825  0.132922402  0.184950197
     0.533057916  0.988880847  0.197570449
     0.038697669  0.154425371  0.181566489
     0.443276705  0.289855172  0.244357660
     0.058033199  0.864454876  0.199100414
     0.154743823  0.731499023  0.227782013
     0.304209818  0.875398854  0.255873796
     0.185752876  0.350161539  0.237495779
     0.298363582  0.614354974  0.248529630
     0.968976114  0.451641719  0.243566535
     0.529199133  0.515614119  0.292536468
     0.776815396  0.347645264  0.297191338
     0.918848569  0.008294656  0.329261883
     0.369413678  0.087344136  0.359629244
     0.859870574  0.769851244  0.303156912
     0.612161690  0.754225841  0.318025874
     0.143105479  0.021669891  0.350719577
     0.749787129  0.571775392  0.372393905
     0.697700635  0.924256303  0.397184866
     0.649186341  0.164232426  0.397250996
     0.118481652  0.578587434  0.388712426
     0.441067648  0.857942682  0.412645308
     0.000537588  0.242355354  0.369995717
     0.310571101  0.433628475  0.406387732
     0.214734440  0.223412829  0.477435160
     0.464192866  0.292387951  0.470125275
     0.197884352  0.789388727  0.482971774
     0.945748954  0.459023666  0.483999637
     0.846606153  0.180339501  0.533007278
     0.022194865  0.050916104  0.512162060
     0.689612338  0.365228446  0.528391079
     0.708351674  0.617651472  0.579244161
     0.516207915  0.040871041  0.557833076
     0.977907741  0.700913902  0.547159286
     0.887667000  0.847374097  0.524032435
     0.259439503  0.015665844  0.572885066
     0.168133072  0.431527876  0.569886286
     0.623226740  0.816875906  0.573805055
     0.705596539  0.028742921  0.627438195
     0.014721253  0.253098836  0.646524113
     0.378981725  0.838041331  0.654987590
     0.338248887  0.631145127  0.656856668
     0.368982774  0.271179774  0.676484726
     0.093882290  0.904600373  0.683223655
     0.995068511  0.491532645  0.715744924
     0.529019957  0.650912933  0.734284716
     0.734372619  0.244180607  0.734653925
     0.698942436  0.450600946  0.747886327
     0.395157461  0.086731509  0.784405411
     0.451932299  0.456040399  0.788562018
     0.166853623  0.112728495  0.791241283
     0.576174649  0.892853165  0.770954515
     0.200820557  0.506383466  0.827307389
     0.231337303  0.797579153  0.819027258
     0.596097569  0.126388599  0.818623261
     0.900494508  0.942661974  0.841720293
     0.025746185  0.680867644  0.846589366
     0.941240704  0.308261972  0.868435612
     0.769162485  0.768757832  0.852161376
     0.335142552  0.300636447  0.904581023
     0.842518586  0.518073611  0.900459103
     0.786463284  0.147400877  0.961147097
     0.614004739  0.589187027  0.944772508
     0.585538002  0.316952707  0.982689023
     0.192715172  0.990510356  0.016956058
     0.692756558  0.968583193  0.970593232

  ion indices of the primitive-cell ions
   primitive index   ion index
                 1           1
                 2           2
                 3           3
                 4           4
                 5           5
                 6           6
                 7           7
                 8           8
                 9           9
                10          10
                11          11
                12          12
                13          13
                14          14
                15          15
                16          16
                17          17
                18          18
                19          19
                20          20
                21          21
                22          22
                23          23
                24          24
                25          25
                26          26
                27          27
                28          28
                29          29
                30          30
                31          31
                32          32
                33          33
                34          34
                35          35
                36          36
                37          37
                38          38
                39          39
                40          40
                41          41
                42          42
                43          43
                44          44
                45          45
                46          46
                47          47
                48          48
                49          49
                50          50
                51          51
                52          52
                53          53
                54          54
                55          55
                56          56
                57          57
                58          58
                59          59
                60          60
                61          61
                62          62
                63          63
                64          64
                65          65
                66          66
                67          67
                68          68
                69          69
                70          70
                71          71
                72          72
                73          73
                74          74
                75          75
                76          76
                77          77
                78          78
                79          79
                80          80
                81          81
                82          82
                83          83
                84          84
                85          85
                86          86
                87          87
                88          88
                89          89
                90          90
                91          91
                92          92
                93          93
                94          94
                95          95
                96          96
                97          97
                98          98
                99          99
               100         100
               101         101
               102         102
               103         103
               104         104
               105         105
               106         106
               107         107
               108         108
               109         109
               110         110
               111         111
               112         112
               113         113
               114         114
               115         115
               116         116
               117         117
               118         118
               119         119
               120         120
               121         121
               122         122
               123         123
               124         124
               125         125
               126         126
               127         127
               128         128
               129         129
               130         130
               131         131
               132         132
               133         133
               134         134
               135         135
               136         136
               137         137
               138         138
               139         139
               140         140
               141         141
               142         142
               143         143
               144         144

----------------------------------------------------------------------------------------

 
 

Automatic generation of k-mesh.
 generate k-points for:    2    2    2
Space group operators:
 irot       det(A)        alpha          n_x          n_y          n_z        tau_x        tau_y        tau_z
    1     1.000000     0.000000     1.000000     0.000000     0.000000     0.000000     0.000000     0.000000
 
 Subroutine IBZKPT returns following result:
 ===========================================
 
 Found      4 irreducible k-points:
 
 Following reciprocal coordinates:
            Coordinates               Weight
  0.250000  0.250000  0.250000      2.000000
 -0.250000  0.250000  0.250000      2.000000
  0.250000 -0.250000  0.250000      2.000000
 -0.250000 -0.250000  0.250000      2.000000
 
 Following cartesian coordinates:
            Coordinates               Weight
  0.014627  0.014578  0.014582      2.000000
 -0.014627  0.014406  0.014809      2.000000
  0.014627 -0.014406  0.014501      2.000000
 -0.014627 -0.014578  0.014728      2.000000
 


--------------------------------------------------------------------------------------------------------




 Dimension of arrays:
   k-points           NKPTS =      4   k-points in BZ     NKDIM =      4   number of bands    NBANDS=    460
   number of dos      NEDOS =    301   number of ions     NIONS =    144
   non local maximal  LDIM  =      5   non local SUM 2l+1 LMDIM =     13
   total plane-waves  NPLWV = 343000
   max r-space proj   IRMAX =   1116   max aug-charges    IRDMAX=   4165
   dimension x,y,z NGX =    70 NGY =   70 NGZ =   70
   dimension x,y,z NGXF=   140 NGYF=  140 NGZF=  140
   support grid    NGXF=   140 NGYF=  140 NGZF=  140
   ions per type =              32  32  80
   NGX,Y,Z   is equivalent  to a cutoff of   6.81,  6.75,  6.82 a.u.
   NGXF,Y,Z  is equivalent  to a cutoff of  13.62, 13.49, 13.64 a.u.

 SYSTEM =  unknown system                          
 POSCAR =  (Converted from LAMMPS) LAMMPS data file

 Startparameter for this run:
   NWRITE =      2    write-flag & timer
   PREC   = normal    normal or accurate (medium, high low for compatibility)
   ISTART =      0    job   : 0-new  1-cont  2-samecut
   ICHARG =      2    charge: 1-file 2-atom 10-const
   ISPIN  =      1    spin polarized calculation?
   LNONCOLLINEAR =      F non collinear calculations
   LSORBIT =      F    spin-orbit coupling
   INIWAV =      1    electr: 0-lowe 1-rand  2-diag
   LASPH  =      F    aspherical Exc in radial PAW
   METAGGA=      F    non-selfconsistent MetaGGA calc.

 Electronic Relaxation 1
   ENCUT  =  250.0 eV  18.37 Ry    4.29 a.u.  22.04 22.24 21.99*2*pi/ulx,y,z
   ENINI  =  250.0     initial cutoff
   ENAUG  =  385.8 eV  augmentation charge cutoff
   NELM   =     60;   NELMIN=  2; NELMDL=  0     # of ELM steps 
   EDIFF  = 0.1E-03   stopping-criterion for ELM
   LREAL  =      T    real-space projection
   NLSPLINE    = F    spline interpolate recip. space projectors
   LCOMPAT=      F    compatible to vasp.4.4
   GGA_COMPAT  = T    GGA compatible to vasp.4.4-vasp.4.6
   LMAXPAW     = -100 max onsite density
   LMAXMIX     =    2 max onsite mixed and CHGCAR
   VOSKOWN=      0    Vosko Wilk Nusair interpolation
   ROPT   =   -0.00050  -0.00050  -0.00050
 Ionic relaxation
   EDIFFG = 0.1E-02   stopping-criterion for IOM
   NSW    =    100    number of steps for IOM
   NBLOCK =      1;   KBLOCK =    100    inner block; outer block 
   IBRION =      2    ionic relax: 0-MD 1-quasi-New 2-CG
   NFREE  =      1    steps in history (QN), initial steepest desc. (CG)
   ISIF   =      2    stress and relaxation
   IWAVPR =     11    prediction:  0-non 1-charg 2-wave 3-comb
   ISYM   =      2    0-nonsym 1-usesym 2-fastsym
   LCORR  =      T    Harris-Foulkes like correction to forces

   POTIM  = 0.5000    time-step for ionic-motion
   TEIN   =    0.0    initial temperature
   TEBEG  =    0.0;   TEEND  =   0.0 temperature during run
   SMASS  =  -3.00    Nose mass-parameter (am)
   estimated Nose-frequenzy (Omega)   =  0.10E-29 period in steps = 0.13E+47 mass=  -0.668E-26a.u.
   SCALEE = 1.0000    scale energy and forces
   NPACO  =    256;   APACO  = 16.0  distance and # of slots for P.C.
   PSTRESS=    0.0 pullay stress

  Mass of Ions in am
   POMASS =  72.61121.75127.60
  Ionic Valenz
   ZVAL   =   4.00  5.00  6.00
  Atomic Wigner-Seitz radii
   RWIGS  =  -1.00 -1.00 -1.00
  virtual crystal weights 
   VCA    =   1.00  1.00  1.00
   NELECT =     768.0000    total number of electrons
   NUPDOWN=      -1.0000    fix difference up-down

 DOS related values:
   EMIN   =  10.00;   EMAX   =-10.00  energy-range for DOS
   EFERMI =   0.00
   ISMEAR =     0;   SIGMA  =   0.05  broadening in eV -4-tet -1-fermi 0-gaus

 Electronic relaxation 2 (details)
   IALGO  =     68    algorithm
   LDIAG  =      T    sub-space diagonalisation (order eigenvalues)
   LSUBROT=      F    optimize rotation matrix (better conditioning)
   TURBO    =      0    0=normal 1=particle mesh
   IRESTART =      0    0=no restart 2=restart with 2 vectors
   NREBOOT  =      0    no. of reboots
   NMIN     =      0    reboot dimension
   EREF     =   0.00    reference energy to select bands
   IMIX   =      4    mixing-type and parameters
     AMIX     =   0.40;   BMIX     =  1.00
     AMIX_MAG =   1.60;   BMIX_MAG =  1.00
     AMIN     =   0.10
     WC   =   100.;   INIMIX=   1;  MIXPRE=   1;  MAXMIX= -45

 Intra band minimization:
   WEIMIN = 0.0010     energy-eigenvalue tresh-hold
   EBREAK =  0.54E-07  absolut break condition
   DEPER  =   0.30     relativ break condition  

   TIME   =   0.40     timestep for ELM

  volume/ion in A,a.u.               =      34.93       235.71
  Fermi-wavevector in a.u.,A,eV,Ry     =   0.875009  1.653528 10.417179  0.765641
  Thomas-Fermi vector in A             =   1.994620
 
 Write flags
   LWAVE        =      F    write WAVECAR
   LDOWNSAMPLE  =      F    k-point downsampling of WAVECAR
   LCHARG       =      F    write CHGCAR
   LVTOT        =      F    write LOCPOT, total local potential
   LVHAR        =      F    write LOCPOT, Hartree potential only
   LELF         =      F    write electronic localiz. function (ELF)
   LORBIT       =      0    0 simple, 1 ext, 2 COOP (PROOUT), +10 PAW based schemes


 Dipole corrections
   LMONO  =      F    monopole corrections only (constant potential shift)
   LDIPOL =      F    correct potential (dipole corrections)
   IDIPOL =      0    1-x, 2-y, 3-z, 4-all directions 
   EPSILON=  1.0000000 bulk dielectric constant

 Exchange correlation treatment:
   GGA     =    --    GGA type
   LEXCH   =     8    internal setting for exchange type
   VOSKOWN=      0    Vosko Wilk Nusair interpolation
   LHFCALC =     F    Hartree Fock is set to
   LHFONE  =     F    Hartree Fock one center treatment
   AEXX    =    0.0000 exact exchange contribution

 Linear response parameters
   LEPSILON=     F    determine dielectric tensor
   LRPA    =     F    only Hartree local field effects (RPA)
   LNABLA  =     F    use nabla operator in PAW spheres
   LVEL    =     F    velocity operator in full k-point grid
   LINTERFAST=   F  fast interpolation
   KINTER  =     0    interpolate to denser k-point grid
   CSHIFT  =0.1000    complex shift for real part using Kramers Kronig
   OMEGAMAX=  -1.0    maximum frequency
   DEG_THRESHOLD= 0.2000000E-02 threshold for treating states as degnerate
   RTIME   =   -0.100 relaxation time in fs
  (WPLASMAI=    0.000 imaginary part of plasma frequency in eV, 0.658/RTIME)
   DFIELD  = 0.0000000 0.0000000 0.0000000 field for delta impulse in time
 
 Orbital magnetization related:
   ORBITALMAG=     F  switch on orbital magnetization
   LCHIMAG   =     F  perturbation theory with respect to B field
   DQ        =  0.001000  dq finite difference perturbation B field
   LLRAUG    =     F  two centre corrections for induced B field



--------------------------------------------------------------------------------------------------------


 conjugate gradient relaxation of ions
 charge density and potential will be updated during run
 non-spin polarized calculation
 RMM-DIIS sequential band-by-band and
  variant of blocked Davidson during initial phase
 perform sub-space diagonalisation
    before iterative eigenvector-optimisation
 modified Broyden-mixing scheme, WC =      100.0
 initial mixing is a Kerker type mixing with AMIX =  0.4000 and BMIX =      1.0000
 Hartree-type preconditioning will be used
 using additional bands           76
 real space projection scheme for non local part
 use partial core corrections
 calculate Harris-corrections to forces 
   (improved forces if not selfconsistent)
 use gradient corrections 
 use of overlap-Matrix (Vanderbilt PP)
 Gauss-broadening in eV      SIGMA  =   0.05


--------------------------------------------------------------------------------------------------------


  energy-cutoff  :      250.00
  volume of cell :     5029.77
      direct lattice vectors                 reciprocal lattice vectors
    17.092089254  0.000000000  0.000000000     0.058506598  0.000343901 -0.000454262
    -0.101398904 17.250634831  0.000000000     0.000000000  0.057968881  0.000161945
     0.132729263 -0.047656197 17.058768083     0.000000000  0.000000000  0.058620880

  length of vectors
    17.092089254 17.250932839 17.059351004     0.058509372  0.057969107  0.058620880


 
 k-points in units of 2pi/SCALE and weight: read from INCAR                         
   0.01462665  0.01457820  0.01458214       0.250
  -0.01462665  0.01440625  0.01480927       0.250
   0.01462665 -0.01440625  0.01450117       0.250
  -0.01462665 -0.01457820  0.01472830       0.250
 
 k-points in reciprocal lattice and weights: read from INCAR                         
   0.25000000  0.25000000  0.25000000       0.250
  -0.25000000  0.25000000  0.25000000       0.250
   0.25000000 -0.25000000  0.25000000       0.250
  -0.25000000 -0.25000000  0.25000000       0.250
 
 position of ions in fractional coordinates (direct lattice) 
   0.42646086  0.30622236  0.04244774
   0.15868578  0.12900687  0.08416531
   0.31030054  0.28256212  0.15250137
   0.06797016  0.30801278  0.13282570
   0.18457679  0.96887993  0.20643868
   0.56262861  0.80602060  0.16849712
   0.73554825  0.67851321  0.24926131
   0.45845759  0.66192726  0.27808410
   0.14510020  0.19072499  0.30636455
   0.28797707  0.94735674  0.40128750
   0.05768099  0.38977418  0.36623525
   0.07156728  0.73481480  0.40036231
   0.27642416  0.58857443  0.40177297
   0.02116351  0.91706417  0.41705291
   0.75997049  0.77642976  0.43841203
   0.68787001  0.19972628  0.56197906
   0.48889878  0.89134759  0.55725702
   0.06582035  0.55097235  0.53979667
   0.55971426  0.67442791  0.57692861
   0.14689695  0.13067820  0.58672401
   0.11281603  0.75860672  0.61208675
   0.81999561  0.12428731  0.68430233
   0.12210196  0.39480522  0.72097969
   0.45474181  0.79258279  0.78832196
   0.46294035  0.29689882  0.80931198
   0.73937987  0.05458513  0.83726652
   0.07803455  0.85825385  0.83645173
   0.10783231  0.00125786  0.88619539
   0.78519728  0.29820597  0.90773631
   0.30530315  0.14159716  0.91624706
   0.69397820  0.44544835  0.91253556
   0.83094049  0.87558188  0.97643329
   0.61449268  0.15445694  0.00785573
   0.76624164  0.65075807  0.99662535
   0.04840769  0.84885208  0.03064029
   0.89974199  0.46808155  0.05263040
   0.57034677  0.52210692  0.10746099
   0.38775023  0.98084404  0.11475464
   0.68406279  0.34349976  0.14916905
   0.02318500  0.63022936  0.17088864
   0.62818911  0.18461779  0.18072959
   0.38475879  0.44673337  0.24253342
   0.79815549  0.91937861  0.25797863
   0.81275588  0.18899543  0.33499225
   0.91402578  0.56489656  0.35857916
   0.51508842  0.00582120  0.37411048
   0.61930259  0.32699066  0.38291599
   0.81289624  0.01186752  0.49439557
   0.36361169  0.14998251  0.51914364
   0.39877755  0.65204935  0.50434399
   0.43528047  0.48095509  0.50853701
   0.53020762  0.28210002  0.62349777
   0.55439253  0.44859539  0.65424362
   0.33212232  0.45848506  0.65358447
   0.95073393  0.98649821  0.65079285
   0.89114464  0.34859430  0.71668103
   0.69651096  0.62354237  0.74583313
   0.26680724  0.98537441  0.73844730
   0.16270049  0.66233082  0.74503247
   0.97281965  0.12684790  0.74762794
   0.50107342  0.00292184  0.88573796
   0.04029322  0.51735406  0.87967539
   0.96831372  0.06673896  0.93183290
   0.62736843  0.82084232  0.92341253
   0.41946056  0.85668443  0.00097103
   0.14500593  0.25210851  0.99782638
   0.43699993  0.11636502  0.01729914
   0.93522585  0.72675663  0.05890729
   0.17710787  0.70290591  0.97884115
   0.28620490  0.78274795  0.08209827
   0.12787570  0.56447252  0.05882244
   0.41948536  0.46779794  0.05749840
   0.83134864  0.31635824  0.06897935
   0.93890873  0.97592173  0.07167351
   0.70602977  0.78745334  0.09278539
   0.48804022  0.66707498  0.11769585
   0.78764601  0.55417574  0.14067582
   0.77942605  0.11684843  0.18739501
   0.27738083  0.13292240  0.18495020
   0.53305792  0.98888085  0.19757045
   0.03869767  0.15442537  0.18156649
   0.44327671  0.28985517  0.24435766
   0.05803320  0.86445488  0.19910041
   0.15474382  0.73149902  0.22778201
   0.30420982  0.87539885  0.25587380
   0.18575288  0.35016154  0.23749578
   0.29836358  0.61435497  0.24852963
   0.96897611  0.45164172  0.24356654
   0.52919913  0.51561412  0.29253647
   0.77681540  0.34764526  0.29719134
   0.91884857  0.00829466  0.32926188
   0.36941368  0.08734414  0.35962924
   0.85987057  0.76985124  0.30315691
   0.61216169  0.75422584  0.31802587
   0.14310548  0.02166989  0.35071958
   0.74978713  0.57177539  0.37239390
   0.69770063  0.92425630  0.39718487
   0.64918634  0.16423243  0.39725100
   0.11848165  0.57858743  0.38871243
   0.44106765  0.85794268  0.41264531
   0.00053759  0.24235535  0.36999572
   0.31057110  0.43362848  0.40638773
   0.21473444  0.22341283  0.47743516
   0.46419287  0.29238795  0.47012527
   0.19788435  0.78938873  0.48297177
   0.94574895  0.45902367  0.48399964
   0.84660615  0.18033950  0.53300728
   0.02219486  0.05091610  0.51216206
   0.68961234  0.36522845  0.52839108
   0.70835167  0.61765147  0.57924416
   0.51620792  0.04087104  0.55783308
   0.97790774  0.70091390  0.54715929
   0.88766700  0.84737410  0.52403244
   0.25943950  0.01566584  0.57288507
   0.16813307  0.43152788  0.56988629
   0.62322674  0.81687591  0.57380505
   0.70559654  0.02874292  0.62743819
   0.01472125  0.25309884  0.64652411
   0.37898172  0.83804133  0.65498759
   0.33824889  0.63114513  0.65685667
   0.36898277  0.27117977  0.67648473
   0.09388229  0.90460037  0.68322365
   0.99506851  0.49153264  0.71574492
   0.52901996  0.65091293  0.73428472
   0.73437262  0.24418061  0.73465392
   0.69894244  0.45060095  0.74788633
   0.39515746  0.08673151  0.78440541
   0.45193230  0.45604040  0.78856202
   0.16685362  0.11272850  0.79124128
   0.57617465  0.89285316  0.77095451
   0.20082056  0.50638347  0.82730739
   0.23133730  0.79757915  0.81902726
   0.59609757  0.12638860  0.81862326
   0.90049451  0.94266197  0.84172029
   0.02574619  0.68086764  0.84658937
   0.94124070  0.30826197  0.86843561
   0.76916249  0.76875783  0.85216138
   0.33514255  0.30063645  0.90458102
   0.84251859  0.51807361  0.90045910
   0.78646328  0.14740088  0.96114710
   0.61400474  0.58918703  0.94477251
   0.58553800  0.31695271  0.98268902
   0.19271517  0.99051036  0.01695606
   0.69275656  0.96858319  0.97059323
 
 position of ions in cartesian coordinates  (Angst):
   7.26369055  5.28050717  0.72410608
   2.71036149  2.22143942  1.43575650
   5.29527439  4.86710825  2.60148544
   1.14814968  5.30708611  2.26584279
   3.08396011 16.70395575  3.52158951
   9.55713323 13.89633707  2.87435325
  12.53634005 11.69290478  4.25209094
   7.80578919 11.40541300  4.74377225
   2.50138985  3.27552696  5.22620187
   4.87933152 16.32338139  6.84547041
   0.99497601  6.70639868  6.24752215
   1.20186476 12.65694197  6.82968773
   4.71831262 10.13413560  6.85375192
   0.32409441 15.80006403  7.11440893
  12.96894442 13.37301317  7.47876911
  11.81147468  3.41862340  9.58667048
   8.33988425 15.34975507  9.50611828
   1.14078618  9.47889821  9.20826627
   9.57487515 11.60681529  9.84169143
   2.57540052  2.22632084 10.00878888
   1.93258159 13.05727783 10.44144586
  14.09366256  2.11142380 11.67335479
   2.14263986  6.77628151 12.29902540
   7.79675399 13.63498778 13.44780142
   7.98993202  5.08312445 13.80586535
  12.74314170  0.90172718 14.28273544
   1.35776908 14.76556172 14.26883614
   1.96057600 -0.02053382 15.11740169
  13.51090735  5.10098306 15.48486327
   5.32552377  2.39897608 15.63004612
  11.93748962  7.64077893 15.56673255
  14.24332726 15.05781014 16.65674906
  10.48834469  2.66410595  0.13400903
  13.16296569 11.17849445 17.00120067
   0.74538275 14.64177698  0.52268567
  15.33799304  8.07219567  0.89780971
   9.70974008  9.00155472  1.83315215
   6.54323640 16.91471366  1.95757279
  11.67703093  5.91848015  2.54464025
   0.35505738 10.86371266  2.91514960
  10.74233232  3.17616123  3.08302408
   6.56322460  7.69487597  4.13732141
  13.58316217 15.84757046  4.40079763
  13.91699541  3.24432661  5.71455513
  15.61292427  9.72773572  6.11691865
   8.85300248  0.08259069  6.38186388
  10.60284282  5.62254810  6.53207502
  13.95851242  0.18116129  8.43377942
   6.26858100  2.56255312  8.85595100
   6.81676557 11.22423007  8.60348709
   7.45858203  8.27254564  8.67501489
   9.11650769  4.83669098 10.63610378
   9.51707674  7.70737644 11.16059025
   5.71692416  7.87801092 11.14934584
  16.23637865 16.98670604 11.10172433
  15.29130120  5.97931866 12.22569552
  11.94059491 10.72095815 12.72299434
   4.55839076 16.96314261 12.59700122
   2.81261921 11.39012171 12.70933618
  16.71389022  2.15257764 12.75361172
   8.68165874  0.00819278 15.10959850
   0.75299493  8.88276398 15.00617850
  16.66741885  1.10688185 15.89592141
  10.76236863 14.11604475 15.75228021
   7.08271939 14.77830402  0.01656463
   2.58533154  4.30147928 17.02168873
   7.45973864  2.00654603  0.29510197
  15.91909001 12.53420587  1.00488577
   3.08579044 12.07892526 16.69782421
   4.82336674 13.49898661  1.40049531
   2.13623346  9.73470599  1.00343833
   7.13007866  8.06707133  0.98085181
  14.18656244  5.45409313  1.17670266
  15.95846753 16.83185377  1.22266179
  11.99999221 13.57964819  1.58280450
   8.28960793 11.50185787  2.00774619
  13.42499491  9.55317926  2.39975616
  13.33504415  2.00677908  3.19672793
   4.75208794  2.28418179  3.15502251
   9.03702543 17.04940693  3.37030847
   0.66986463  2.65528291  3.09730063
   7.57956742  4.98854058  4.16844065
   0.93068029 14.90290703  3.39640778
   2.60095537 12.60796730  3.88568053
   5.14477882 15.08899200  4.36489174
   3.17092138  6.02919070  4.05138542
   5.07034921 10.58616933  4.23960932
  16.54835866  7.77949891  4.15494504
   9.03166426  8.88072971  4.99031177
  13.28159321  5.98293849  5.06971811
  15.74790336  0.12739671  5.61680211
   6.35292828  1.48960324  6.13483187
  14.65916031 13.26597538  5.17148346
  10.42885592 12.99571866  5.42512962
   2.49032506  0.35710541  5.98284393
  12.80687870  9.84574162  6.35258126
  11.88416100 15.92507965  6.77548451
  11.13202472  2.81418213  6.77661261
   2.01802436  9.96247598  6.63095512
   7.50654327 14.78039082  7.03922060
   0.03372320  4.16315113  6.31167112
   5.31827906  7.46099958  6.93247407
   3.71097601  3.83126039  8.14445566
   7.96677746  5.02147339  8.01975803
   3.36631834 13.59444007  8.23890348
  16.18252196  7.89538406  8.25643756
  14.52272737  3.08556977  9.09244754
   0.44217266  0.85392742  8.73685380
  11.82001483  6.27524145  9.01370088
  12.12146350 10.62727542  9.88119181
   8.89296826  0.67846720  9.51594507
  16.71603853 12.06513424  9.33386336
  15.15571523 14.59276772  8.93934778
   4.50881325  0.24294423  9.77271348
   2.90562960  7.41697119  9.72155799
  10.64557747 14.06428260  9.78840735
  12.14048393  0.46593232 10.70332265
   0.31176569  4.33530472 11.02890491
   6.47954901 14.42553076 11.17328140
   5.80456684 10.85635082 11.20516557
   6.36897849  4.64578457 11.53999605
   1.60360277 15.57237086 11.65495387
  17.05295923  8.44514048 12.20972667
   9.07351554 11.19366810 12.52599268
  12.62471277  4.17725967 12.53229093
  11.99996247  7.73751095 12.75801940
   6.84938566  1.45879181 13.38098998
   7.78289045  7.82940653 13.45189658
   2.94546734  1.90693056 13.49760154
   9.85982241 15.36554315 13.15153427
   3.49090405  8.69600993 14.11284489
   3.98187306 13.71971500 13.97159605
  10.28439245  2.14127110 13.96470436
  15.40746852 16.22140429 14.35871127
   0.48338404 11.70505387 14.44177166
  16.17177952  5.27632837 14.81444170
  13.18174940 13.22094986 14.53682329
   5.81786657  5.14306068 15.43103788
  14.46738805  8.89418623 15.36072301
  13.55492671  2.49695409 16.39598542
  10.56027984 10.11882598 16.11665511
  10.10636072  5.42080418 16.76346414
   3.19571882 17.08612439  0.28924946
  11.87126977 16.66242019 16.55712484
 


--------------------------------------------------------------------------------------------------------


 k-point  1 :   0.2500 0.2500 0.2500  plane waves:   45146
 k-point  2 :  -0.2500 0.2500 0.2500  plane waves:   45161
 k-point  3 :   0.2500-0.2500 0.2500  plane waves:   45126
 k-point  4 :  -0.2500-0.2500 0.2500  plane waves:   45157

 maximum and minimum number of plane-waves per node :     11307    11261

 maximum number of plane-waves:     45161
 maximum index in each direction: 
   IXMAX=   22   IYMAX=   22   IZMAX=   21
   IXMIN=  -22   IYMIN=  -22   IZMIN=  -22


 real space projection operators:
  total allocation   :      15151.91 KBytes
  max/ min on nodes  :       3907.21       3666.20


 parallel 3D FFT for wavefunctions:
    minimum data exchange during FFTs selected (reduces bandwidth)
 parallel 3D FFT for charge:
    minimum data exchange during FFTs selected (reduces bandwidth)


 total amount of memory used by VASP MPI-rank0   144464. kBytes
=======================================================================

   base      :      30000. kBytes
   nonlr-proj:       3870. kBytes
   fftplans  :       8673. kBytes
   grid      :      14958. kBytes
   one-center:        292. kBytes
   wavefun   :      86671. kBytes
 
     INWAV:  cpu time    0.0003: real time    0.0005
 Broyden mixing: mesh for mixing (old mesh)
   NGX = 45   NGY = 45   NGZ = 43
  (NGX  =140   NGY  =140   NGZ  =140)
  gives a total of  87075 points

 initial charge density was supplied:
 charge density of overlapping atoms calculated
 number of electron     768.0000000 magnetization 
 keeping initial charge density in first step


--------------------------------------------------------------------------------------------------------


 Maximum index for non-local projection operator          329
 Maximum index for augmentation-charges          351 (set IRDMAX)


--------------------------------------------------------------------------------------------------------


 First call to EWALD:  gamma=   0.103
 Maximum number of real-space cells 3x 3x 3
 Maximum number of reciprocal cells 3x 3x 3

    FEWALD:  cpu time    0.0149: real time    0.0149


--------------------------------------- Iteration      1(   1)  ---------------------------------------


    POTLOK:  cpu time    0.1909: real time    0.2188
    SETDIJ:  cpu time    0.0412: real time    0.0412
     EDDAV:  cpu time   11.2589: real time   11.3195
       DOS:  cpu time    0.0051: real time    0.0052
    --------------------------------------------
      LOOP:  cpu time   11.4962: real time   11.5848

 eigenvalue-minimisations  :  3680
 total energy-change (2. order) : 0.2748670E+04  (-0.1781878E+05)
 number of electron     768.0000000 magnetization 
 augmentation part      768.0000000 magnetization 

 Free energy of the ion-electron system (eV)
  ---------------------------------------------------
  alpha Z        PSCENC =       228.10804731
  Ewald energy   TEWEN  =    -24270.77657949
  -Hartree energ DENC   =     -3081.63193992
  -exchange      EXHF   =         0.00000000
  -V(xc)+E(xc)   XCENC  =     -3974.77318935
  PAW double counting   =     24677.92343082   -19408.96169433
  entropy T*S    EENTRO =        -0.05408851
  eigenvalues    EBANDS =      2559.11945722
  atomic energy  EATOM  =     26019.71659938
  Solvation  Ediel_sol  =         0.00000000
  ---------------------------------------------------
  free energy    TOTEN  =      2748.67004313 eV

  energy without entropy =     2748.72413164  energy(sigma->0) =     2748.69708738


--------------------------------------------------------------------------------------------------------




--------------------------------------- Iteration      1(   2)  ---------------------------------------


     EDDAV:  cpu time   12.9261: real time   12.9679
       DOS:  cpu time    0.0056: real time    0.0056
    --------------------------------------------
      LOOP:  cpu time   12.9317: real time   12.9735

 eigenvalue-minimisations  :  4344
 total energy-change (2. order) :-0.2963209E+04  (-0.2862648E+04)
 number of electron     768.0000000 magnetization 
 augmentation part      768.0000000 magnetization 

 Free energy of the ion-electron system (eV)
  ---------------------------------------------------
  alpha Z        PSCENC =       228.10804731
  Ewald energy   TEWEN  =    -24270.77657949
  -Hartree energ DENC   =     -3081.63193992
  -exchange      EXHF   =         0.00000000
  -V(xc)+E(xc)   XCENC  =     -3974.77318935
  PAW double counting   =     24677.92343082   -19408.96169433
  entropy T*S    EENTRO =        -0.02407385
  eigenvalues    EBANDS =      -404.11951084
  atomic energy  EATOM  =     26019.71659938
  Solvation  Ediel_sol  =         0.00000000
  ---------------------------------------------------
  free energy    TOTEN  =      -214.53891027 eV

  energy without entropy =     -214.51483642  energy(sigma->0) =     -214.52687335


--------------------------------------------------------------------------------------------------------




--------------------------------------- Iteration      1(   3)  ---------------------------------------


     EDDAV:  cpu time   12.9384: real time   12.9831
       DOS:  cpu time    0.0023: real time    0.0023
    --------------------------------------------
      LOOP:  cpu time   12.9407: real time   12.9854

 eigenvalue-minimisations  :  4376
 total energy-change (2. order) :-0.3004128E+03  (-0.2925687E+03)
 number of electron     768.0000000 magnetization 
 augmentation part      768.0000000 magnetization 

 Free energy of the ion-electron system (eV)
  ---------------------------------------------------
  alpha Z        PSCENC =       228.10804731
  Ewald energy   TEWEN  =    -24270.77657949
  -Hartree energ DENC   =     -3081.63193992
  -exchange      EXHF   =         0.00000000
  -V(xc)+E(xc)   XCENC  =     -3974.77318935
  PAW double counting   =     24677.92343082   -19408.96169433
  entropy T*S    EENTRO =        -0.00000010
  eigenvalues    EBANDS =      -704.55642850
  atomic energy  EATOM  =     26019.71659938
  Solvation  Ediel_sol  =         0.00000000
  ---------------------------------------------------
  free energy    TOTEN  =      -514.95175418 eV

  energy without entropy =     -514.95175408  energy(sigma->0) =     -514.95175413


--------------------------------------------------------------------------------------------------------




--------------------------------------- Iteration      1(   4)  ---------------------------------------


     EDDAV:  cpu time   14.8081: real time   14.8555
       DOS:  cpu time    0.0020: real time    0.0020
    --------------------------------------------
      LOOP:  cpu time   14.8101: real time   14.8575

 eigenvalue-minimisations  :  5112
 total energy-change (2. order) :-0.1498293E+02  (-0.1484597E+02)
 number of electron     768.0000000 magnetization 
 augmentation part      768.0000000 magnetization 

 Free energy of the ion-electron system (eV)
  ---------------------------------------------------
  alpha Z        PSCENC =       228.10804731
  Ewald energy   TEWEN  =    -24270.77657949
  -Hartree energ DENC   =     -3081.63193992
  -exchange      EXHF   =         0.00000000
  -V(xc)+E(xc)   XCENC  =     -3974.77318935
  PAW double counting   =     24677.92343082   -19408.96169433
  entropy T*S    EENTRO =        -0.00000008
  eigenvalues    EBANDS =      -719.53935465
  atomic energy  EATOM  =     26019.71659938
  Solvation  Ediel_sol  =         0.00000000
  ---------------------------------------------------
  free energy    TOTEN  =      -529.93468031 eV

  energy without entropy =     -529.93468023  energy(sigma->0) =     -529.93468027


--------------------------------------------------------------------------------------------------------




--------------------------------------- Iteration      1(   5)  ---------------------------------------


     EDDAV:  cpu time   14.3307: real time   14.3769
       DOS:  cpu time    0.0024: real time    0.0024
    CHARGE:  cpu time    0.4931: real time    0.4934
    MIXING:  cpu time    0.0235: real time    0.0237
    --------------------------------------------
      LOOP:  cpu time   14.8498: real time   14.8964

 eigenvalue-minimisations  :  4904
 total energy-change (2. order) :-0.4253234E+00  (-0.4232619E+00)
 number of electron     768.0000130 magnetization 
 augmentation part     -144.2755323 magnetization 

 Broyden mixing:
  rms(total) = 0.46668E+01    rms(broyden)= 0.46667E+01
  rms(prec ) = 0.47434E+01
  weight for this iteration     100.00

 Free energy of the ion-electron system (eV)
  ---------------------------------------------------
  alpha Z        PSCENC =       228.10804731
  Ewald energy   TEWEN  =    -24270.77657949
  -Hartree energ DENC   =     -3081.63193992
  -exchange      EXHF   =         0.00000000
  -V(xc)+E(xc)   XCENC  =     -3974.77318935
  PAW double counting   =     24677.92343082   -19408.96169433
  entropy T*S    EENTRO =        -0.00000010
  eigenvalues    EBANDS =      -719.96467803
  atomic energy  EATOM  =     26019.71659938
  Solvation  Ediel_sol  =         0.00000000
  ---------------------------------------------------
  free energy    TOTEN  =      -530.36000372 eV

  energy without entropy =     -530.36000362  energy(sigma->0) =     -530.36000367


--------------------------------------------------------------------------------------------------------




--------------------------------------- Iteration      1(   6)  ---------------------------------------


    POTLOK:  cpu time    0.1904: real time    0.2175
    SETDIJ:  cpu time    0.0408: real time    0.0408
    EDDIAG:  cpu time    1.5003: real time    1.5012
  RMM-DIIS:  cpu time    4.2713: real time    4.2765
    ORTHCH:  cpu time    0.3392: real time    0.3401
       DOS:  cpu time    0.0025: real time    0.0025
    CHARGE:  cpu time    0.4897: real time    0.4898
    MIXING:  cpu time    0.0180: real time    0.0275
    --------------------------------------------
      LOOP:  cpu time    6.8521: real time    6.8960

 eigenvalue-minimisations  :  3680
 total energy-change (2. order) : 0.4354095E+01  (-0.1053605E+01)
 number of electron     768.0000129 magnetization 
 augmentation part     -143.7941194 magnetization 

 Broyden mixing:
  rms(total) = 0.28285E+01    rms(broyden)= 0.28285E+01
  rms(prec ) = 0.28524E+01
  weight for this iteration     100.00

 eigenvalues of (default mixing * dielectric matrix)
  average eigenvalue GAMMA=   2.4622
  2.4622

 Free energy of the ion-electron system (eV)
  ---------------------------------------------------
  alpha Z        PSCENC =       228.10804731
  Ewald energy   TEWEN  =    -24270.77657949
  -Hartree energ DENC   =     -3120.17686535
  -exchange      EXHF   =         0.00000000
  -V(xc)+E(xc)   XCENC  =     -3968.76559437
  PAW double counting   =     33047.99357880   -27782.83395721
  entropy T*S    EENTRO =        -0.00002970
  eigenvalues    EBANDS =      -679.27110835
  atomic energy  EATOM  =     26019.71659938
  Solvation  Ediel_sol  =         0.00000000
  ---------------------------------------------------
  free energy    TOTEN  =      -526.00590897 eV

  energy without entropy =     -526.00587927  energy(sigma->0) =     -526.00589412


--------------------------------------------------------------------------------------------------------




--------------------------------------- Iteration      1(   7)  ---------------------------------------


    POTLOK:  cpu time    0.1641: real time    0.1902
    SETDIJ:  cpu time    0.0390: real time    0.0390
    EDDIAG:  cpu time    1.4927: real time    1.4946
  RMM-DIIS:  cpu time    4.2943: real time    4.2995
    ORTHCH:  cpu time    0.3390: real time    0.3390
       DOS:  cpu time    0.0046: real time    0.0046
    CHARGE:  cpu time    0.4903: real time    0.4912
    MIXING:  cpu time    0.0150: real time    0.0197
    --------------------------------------------
      LOOP:  cpu time    6.8390: real time    6.8778

 eigenvalue-minimisations  :  3730
 total energy-change (2. order) : 0.1571718E+00  (-0.7188953E+00)
 number of electron     768.0000129 magnetization 
 augmentation part     -143.5352993 magnetization 

 Broyden mixing:
  rms(total) = 0.30470E+00    rms(broyden)= 0.30469E+00
  rms(prec ) = 0.34556E+00
  weight for this iteration     100.00

 eigenvalues of (default mixing * dielectric matrix)
  average eigenvalue GAMMA=   1.8925
  1.2649  2.5202

 Free energy of the ion-electron system (eV)
  ---------------------------------------------------
  alpha Z        PSCENC =       228.10804731
  Ewald energy   TEWEN  =    -24270.77657949
  -Hartree energ DENC   =     -3166.90622535
  -exchange      EXHF   =         0.00000000
  -V(xc)+E(xc)   XCENC  =     -3960.27517362
  PAW double counting   =     48155.65337470   -42894.68930024
  entropy T*S    EENTRO =        -0.00049197
  eigenvalues    EBANDS =      -636.67898790
  atomic energy  EATOM  =     26019.71659938
  Solvation  Ediel_sol  =         0.00000000
  ---------------------------------------------------
  free energy    TOTEN  =      -525.84873718 eV

  energy without entropy =     -525.84824520  energy(sigma->0) =     -525.84849119


--------------------------------------------------------------------------------------------------------




--------------------------------------- Iteration      1(   8)  ---------------------------------------


    POTLOK:  cpu time    0.1618: real time    0.1879
    SETDIJ:  cpu time    0.0355: real time    0.0355
    EDDIAG:  cpu time    1.5095: real time    1.5114
  RMM-DIIS:  cpu time    4.3163: real time    4.3202
    ORTHCH:  cpu time    0.3381: real time    0.3391
       DOS:  cpu time    0.0027: real time    0.0027
    CHARGE:  cpu time    0.4896: real time    0.4896
    MIXING:  cpu time    0.0140: real time    0.0155
    --------------------------------------------
      LOOP:  cpu time    6.8675: real time    6.9018

 eigenvalue-minimisations  :  3749
 total energy-change (2. order) : 0.2116157E+00  (-0.6034151E-01)
 number of electron     768.0000129 magnetization 
 augmentation part     -143.6431209 magnetization 

 Broyden mixing:
  rms(total) = 0.11494E+00    rms(broyden)= 0.11494E+00
  rms(prec ) = 0.12387E+00
  weight for this iteration     100.00

 eigenvalues of (default mixing * dielectric matrix)
  average eigenvalue GAMMA=   1.6630
  2.5842  1.0232  1.3816

 Free energy of the ion-electron system (eV)
  ---------------------------------------------------
  alpha Z        PSCENC =       228.10804731
  Ewald energy   TEWEN  =    -24270.77657949
  -Hartree energ DENC   =     -3166.83412546
  -exchange      EXHF   =         0.00000000
  -V(xc)+E(xc)   XCENC  =     -3959.79456649
  PAW double counting   =     49317.41780888   -44056.34412337
  entropy T*S    EENTRO =        -0.00012146
  eigenvalues    EBANDS =      -637.13006080
  atomic energy  EATOM  =     26019.71659938
  Solvation  Ediel_sol  =         0.00000000
  ---------------------------------------------------
  free energy    TOTEN  =      -525.63712149 eV

  energy without entropy =     -525.63700003  energy(sigma->0) =     -525.63706076


--------------------------------------------------------------------------------------------------------




--------------------------------------- Iteration      1(   9)  ---------------------------------------


    POTLOK:  cpu time    0.1646: real time    0.1916
    SETDIJ:  cpu time    0.0353: real time    0.0353
    EDDIAG:  cpu time    1.5024: real time    1.5034
  RMM-DIIS:  cpu time    4.4396: real time    4.4445
    ORTHCH:  cpu time    0.3390: real time    0.3401
       DOS:  cpu time    0.0024: real time    0.0024
    CHARGE:  cpu time    0.4873: real time    0.4873
    MIXING:  cpu time    0.0145: real time    0.0163
    --------------------------------------------
      LOOP:  cpu time    6.9851: real time    7.0209

 eigenvalue-minimisations  :  3875
 total energy-change (2. order) : 0.4049438E-02  (-0.9748362E-02)
 number of electron     768.0000129 magnetization 
 augmentation part     -143.6888139 magnetization 

 Broyden mixing:
  rms(total) = 0.60210E-01    rms(broyden)= 0.60209E-01
  rms(prec ) = 0.62180E-01
  weight for this iteration     100.00

 eigenvalues of (default mixing * dielectric matrix)
  average eigenvalue GAMMA=   1.7198
  2.5538  0.9184  1.7036  1.7036

 Free energy of the ion-electron system (eV)
  ---------------------------------------------------
  alpha Z        PSCENC =       228.10804731
  Ewald energy   TEWEN  =    -24270.77657949
  -Hartree energ DENC   =     -3167.34245524
  -exchange      EXHF   =         0.00000000
  -V(xc)+E(xc)   XCENC  =     -3959.61840095
  PAW double counting   =     49543.32086912   -44282.16036102
  entropy T*S    EENTRO =        -0.00009706
  eigenvalues    EBANDS =      -636.88069410
  atomic energy  EATOM  =     26019.71659938
  Solvation  Ediel_sol  =         0.00000000
  ---------------------------------------------------
  free energy    TOTEN  =      -525.63307205 eV

  energy without entropy =     -525.63297498  energy(sigma->0) =     -525.63302352


--------------------------------------------------------------------------------------------------------




--------------------------------------- Iteration      1(  10)  ---------------------------------------


    POTLOK:  cpu time    0.1665: real time    0.1923
    SETDIJ:  cpu time    0.0352: real time    0.0352
    EDDIAG:  cpu time    1.5032: real time    1.5052
  RMM-DIIS:  cpu time    4.4964: real time    4.5015
    ORTHCH:  cpu time    0.3386: real time    0.3389
       DOS:  cpu time    0.0026: real time    0.0026
    CHARGE:  cpu time    0.4864: real time    0.4874
    MIXING:  cpu time    0.0152: real time    0.0152
    --------------------------------------------
      LOOP:  cpu time    7.0440: real time    7.0783

 eigenvalue-minimisations  :  3929
 total energy-change (2. order) :-0.3064671E-02  (-0.1992817E-02)
[...]
   -.946E+01 -.186E+02 -.234E+01   0.789E+01 0.219E+02 -.549E+00   0.157E+01 -.330E+01 0.289E+01   0.690E-04 0.919E-03 -.801E-03
   -.430E+02 -.715E+02 0.379E+00   0.466E+02 0.749E+02 0.197E+01   -.359E+01 -.336E+01 -.236E+01   0.146E-02 0.111E-02 0.729E-03
   -.561E+02 0.185E+02 0.137E+02   0.602E+02 -.205E+02 -.174E+02   -.415E+01 0.201E+01 0.363E+01   0.678E-03 0.332E-03 -.239E-03
   -.278E+01 -.201E+02 -.290E+02   0.474E+01 0.240E+02 0.311E+02   -.197E+01 -.395E+01 -.209E+01   0.305E-03 -.273E-02 0.117E-02
   0.554E+02 0.332E+02 -.509E+02   -.591E+02 -.367E+02 0.522E+02   0.369E+01 0.347E+01 -.133E+01   -.126E-02 0.714E-03 0.527E-04
   0.181E+02 0.482E+02 -.550E+02   -.180E+02 -.465E+02 0.574E+02   -.747E-01 -.175E+01 -.243E+01   -.984E-03 -.864E-03 0.764E-03
   -.881E+01 0.204E+02 -.830E+01   0.845E+01 -.238E+02 0.531E+01   0.359E+00 0.343E+01 0.300E+01   0.315E-05 -.337E-03 0.703E-03
   -.442E+01 0.150E+02 -.542E+01   0.594E+01 -.180E+02 0.194E+01   -.153E+01 0.304E+01 0.347E+01   0.191E-03 -.148E-03 0.273E-03
   -.444E+02 0.176E+02 -.220E+02   0.493E+02 -.167E+02 0.236E+02   -.488E+01 -.902E+00 -.165E+01   0.659E-03 0.732E-03 0.629E-03
   0.234E+02 0.540E+02 -.230E+02   -.275E+02 -.556E+02 0.250E+02   0.405E+01 0.167E+01 -.194E+01   -.421E-03 -.123E-02 0.695E-03
   -.332E+02 -.419E+02 0.134E+02   0.356E+02 0.428E+02 -.178E+02   -.247E+01 -.832E+00 0.441E+01   -.397E-03 -.835E-03 -.624E-03
   0.225E+02 0.198E+02 -.108E+02   -.274E+02 -.211E+02 0.101E+02   0.494E+01 0.123E+01 0.725E+00   -.772E-03 0.121E-02 0.884E-03
   0.190E+02 -.262E+01 -.377E+02   -.193E+02 0.517E+01 0.419E+02   0.354E+00 -.256E+01 -.427E+01   -.146E-02 -.763E-03 0.184E-02
   0.576E+02 -.434E+01 -.123E+02   -.616E+02 0.355E+01 0.120E+02   0.402E+01 0.789E+00 0.292E+00   -.300E-04 -.179E-03 -.607E-03
   0.760E+01 0.263E+02 0.915E+01   -.384E+01 -.242E+02 -.104E+02   -.376E+01 -.212E+01 0.122E+01   -.104E-02 0.115E-02 -.102E-03
   0.371E+02 -.374E+02 0.194E+02   -.393E+02 0.414E+02 -.219E+02   0.214E+01 -.401E+01 0.249E+01   -.441E-03 0.990E-03 -.126E-02
   0.196E+02 0.550E+01 -.459E+02   -.234E+02 -.942E+01 0.486E+02   0.385E+01 0.392E+01 -.270E+01   0.124E-02 0.100E-03 -.227E-03
   0.179E+02 -.419E+02 -.483E+01   -.203E+02 0.443E+02 0.588E+01   0.248E+01 -.242E+01 -.104E+01   -.271E-03 -.128E-02 -.535E-03
   -.221E+02 -.142E+02 0.236E+02   0.260E+02 0.126E+02 -.257E+02   -.394E+01 0.157E+01 0.210E+01   0.931E-04 0.259E-03 0.149E-03
   0.247E+01 -.180E+01 0.227E+02   0.361E+00 0.543E+01 -.265E+02   -.283E+01 -.363E+01 0.385E+01   0.105E-02 -.654E-03 0.890E-04
   0.287E+02 -.496E+02 -.635E+02   -.292E+02 0.532E+02 0.678E+02   0.504E+00 -.359E+01 -.427E+01   0.249E-03 0.365E-03 -.459E-03
   -.979E+00 -.697E+02 -.362E-01   0.431E+00 0.745E+02 -.955E+00   0.548E+00 -.481E+01 0.995E+00   0.100E-03 0.569E-03 -.564E-03
   -.194E+02 0.182E+02 0.207E+02   0.228E+02 -.163E+02 -.246E+02   -.333E+01 -.184E+01 0.394E+01   0.362E-02 0.207E-02 0.648E-03
   -.557E+02 0.202E+02 -.474E+02   0.605E+02 -.212E+02 0.490E+02   -.480E+01 0.105E+01 -.167E+01   0.761E-03 -.275E-03 -.607E-03
   -.567E+02 0.229E+02 -.177E+02   0.615E+02 -.208E+02 0.186E+02   -.472E+01 -.210E+01 -.875E+00   0.631E-03 0.168E-03 -.111E-02
   0.205E+02 -.216E+02 0.286E+02   -.218E+02 0.250E+02 -.310E+02   0.129E+01 -.346E+01 0.249E+01   0.499E-03 -.200E-02 0.212E-03
   0.141E+02 0.474E+02 0.422E+02   -.155E+02 -.498E+02 -.455E+02   0.142E+01 0.236E+01 0.332E+01   -.149E-02 0.596E-03 -.167E-02
   0.523E+02 0.190E+01 0.249E+02   -.563E+02 0.139E+01 -.235E+02   0.399E+01 -.329E+01 -.149E+01   -.196E-02 0.627E-03 -.141E-02
   -.686E+02 -.111E+02 -.306E+02   0.732E+02 0.967E+01 0.334E+02   -.466E+01 0.139E+01 -.280E+01   -.247E-03 -.110E-02 0.255E-02
   -.327E+02 0.247E+02 0.749E+02   0.359E+02 -.257E+02 -.785E+02   -.318E+01 0.102E+01 0.364E+01   -.521E-03 -.887E-04 -.242E-02
   0.578E+02 -.653E+02 0.492E+01   -.622E+02 0.691E+02 -.551E+01   0.443E+01 -.382E+01 0.581E+00   0.472E-03 -.592E-03 0.464E-03
   -.276E+02 -.238E+02 0.425E+02   0.293E+02 0.244E+02 -.466E+02   -.164E+01 -.599E+00 0.412E+01   -.845E-03 0.521E-03 0.443E-03
   -.365E+02 -.282E+01 -.286E+02   0.392E+02 0.163E+01 0.322E+02   -.275E+01 0.119E+01 -.355E+01   -.458E-03 -.122E-02 0.257E-03
   0.623E+02 -.135E+02 0.208E+02   -.664E+02 0.152E+02 -.234E+02   0.411E+01 -.162E+01 0.259E+01   0.964E-03 -.306E-03 0.226E-03
   0.151E+02 -.382E+02 0.121E+02   -.149E+02 0.415E+02 -.134E+02   -.270E+00 -.325E+01 0.134E+01   0.195E-03 0.423E-05 0.225E-03
   -.269E+02 0.194E+02 0.237E+02   0.303E+02 -.233E+02 -.225E+02   -.333E+01 0.392E+01 -.116E+01   0.371E-03 0.297E-02 0.134E-02
   0.147E+02 0.881E+01 -.390E+02   -.156E+02 -.620E+01 0.432E+02   0.888E+00 -.260E+01 -.427E+01   -.203E-03 0.490E-03 -.156E-02
 -----------------------------------------------------------------------------------------------
   0.510E+01 0.107E+02 0.850E+01   0.178E-14 -.746E-13 -.270E-12   -.511E+01 -.107E+02 -.850E+01   -.236E-02 -.315E-02 -.308E-02
 
 
 POSITION                                       TOTAL-FORCE (eV/Angst)
 -----------------------------------------------------------------------------------
      7.26639      5.27915      0.72688        -0.000935     -0.000325      0.000108
      2.70860      2.22008      1.43817         0.003050      0.001090     -0.004395
      5.29324      4.86920      2.60190        -0.002636      0.000141     -0.000360
      1.15044      5.30969      2.27280         0.001710      0.002224      0.003820
      3.08444     16.70790      3.52209        -0.002115      0.001872      0.000236
      9.55377     13.89946      2.87079        -0.001154      0.001779     -0.003896
     12.53282     11.69550      4.24944        -0.002742      0.001665     -0.004131
      7.80918     11.39861      4.74737         0.005794     -0.003738      0.003493
      2.50023      3.27236      5.22696         0.000885     -0.001832      0.002503
      4.87486     16.32675      6.84106         0.001096      0.000498      0.000501
      0.99070      6.70628      6.24784        -0.001031     -0.002120     -0.001488
      1.20376     12.65704      6.82245         0.000909     -0.000905     -0.003968
      4.71863     10.13610      6.85253         0.000981      0.000395      0.002026
      0.31744     15.79577      7.11402        -0.007876     -0.004704      0.001488
     12.96833     13.36889      7.47291        -0.001857     -0.004332     -0.006654
     11.81061      3.41890      9.58898        -0.000913     -0.000101      0.001241
      8.34015     15.34846      9.50469         0.000920      0.000079      0.000043
      1.13903      9.47863      9.20222        -0.001420      0.000471     -0.004215
      9.57213     11.60638      9.84416        -0.001457     -0.000295      0.003616
      2.57491      2.22625     10.01272        -0.002270     -0.002392      0.001556
      1.93544     13.05634     10.43902         0.001308     -0.000795     -0.003159
     14.09039      2.11390     11.66589        -0.001089      0.004083     -0.001476
      2.15031      6.77778     12.30128         0.006254     -0.001426     -0.000040
      7.79649     13.63678     13.45090        -0.002260     -0.000077      0.001274
      7.98081      5.08182     13.80568        -0.004295     -0.002125     -0.001605
     12.74794      0.90421     14.28418         0.002055      0.002687      0.001451
      1.35386     14.76072     14.26842         0.001536     -0.003086     -0.000220
      1.95650     -0.02401     15.11746        -0.000845     -0.002651      0.000072
     13.51245      5.10116     15.48509         0.002275      0.001599      0.002286
      5.32661      2.39676     15.62630        -0.000765     -0.002075     -0.000686
     11.93775      7.64035     15.56814         0.001627      0.000385      0.001102
     14.24062     15.06156     16.65478         0.000903     -0.000987     -0.001610
     10.48963      2.66720      0.12931        -0.000648      0.002680      0.000571
     13.16152     11.17905     17.00056        -0.000500      0.001234     -0.000503
      0.74905     14.64457      0.52581         0.001961      0.003080     -0.000189
     15.33787      8.07151      0.89859        -0.000803      0.002921      0.000186
      9.70850      9.00162      1.83064         0.000539     -0.000907     -0.000617
      6.54836     16.92090      1.96215         0.004995      0.001522      0.003105
     11.67746      5.92068      2.54660         0.000367      0.000773      0.000257
      0.35163     10.86381      2.90567         0.001725     -0.002289     -0.002988
     10.74476      3.17657      3.07882         0.000646      0.000453      0.000609
      6.56039      7.69723      4.13230         0.000055     -0.000014     -0.001977
     13.57795     15.85136      4.40241        -0.003735      0.004387     -0.001083
     13.91802      3.24700      5.71945         0.000592      0.002075      0.000415
     15.61818      9.72760      6.11517         0.002770      0.000259     -0.004193
      8.85338      0.08550      6.38915         0.000762      0.002490      0.001331
     10.59860      5.61403      6.53284        -0.006840     -0.005896     -0.002179
     13.96046      0.18149      8.43312         0.001541      0.000299     -0.000747
      6.26831      2.55805      8.85827        -0.000940     -0.002477      0.002331
      6.81442     11.22367      8.60681        -0.001411      0.000770      0.000754
      7.45941      8.27343      8.67520         0.000573      0.001462     -0.002190
      9.11696      4.84309     10.63075        -0.000202      0.004344     -0.001643
      9.51574      7.71260     11.16485        -0.005065      0.004900      0.002846
      5.71440      7.87284     11.14582        -0.000203     -0.002161     -0.003042
     16.23683     16.98107     11.10449        -0.001825     -0.005910     -0.001220
     15.29717      5.98421     12.22974         0.001853      0.001656      0.002723
     11.94152     10.72027     12.72299        -0.000261     -0.001566      0.000007
      4.55771     16.96621     12.59998         0.001573      0.001965      0.004105
      2.81454     11.38375     12.70293        -0.003214     -0.004689     -0.006539
     16.70167      2.15113     12.75316        -0.006421     -0.002436     -0.001115
      8.68213      0.01120     15.11507         0.001838      0.001338      0.000104
      0.75930      8.88422     15.01321         0.006056     -0.000521      0.006420
     16.66578      1.10905     15.89361         0.000843      0.000817     -0.001390
     10.76450     14.11729     15.74859         0.001677      0.001337     -0.001005
      7.08629     14.77974      0.01993         0.005458      0.002950      0.004423
      2.58633      4.30362     17.02740        -0.000054      0.000658      0.006862
      7.46030      2.01112      0.29578         0.001376      0.001413      0.001593
     15.92295     12.53391      1.00087         0.002404     -0.000343     -0.005549
      3.08986     12.08245     16.70148         0.007726      0.002202     -0.003195
      4.83670     13.49012      1.40393         0.004412     -0.000101      0.001827
      2.14928      9.73785      1.00437         0.007279      0.003383     -0.001761
      7.12912      8.06666      0.97585        -0.000591      0.000610     -0.002594
     14.18685      5.45411      1.18062         0.000704      0.002221      0.000370
     15.95920     16.83352      1.22083        -0.000532      0.000049     -0.002159
     12.00084     13.58004      1.58320        -0.000138     -0.000130     -0.001673
      8.28671     11.49955      2.01140        -0.000393     -0.001294      0.003206
     13.42228      9.55370      2.39788        -0.002556      0.000584     -0.001147
     13.33835      2.01021      3.20088         0.002154      0.001800      0.000175
      4.75034      2.28544      3.15676        -0.000358      0.000625      0.001028
      9.04208     17.05309      3.37229         0.004125      0.001906      0.004085
      0.66912      2.65620      3.09710        -0.004988      0.001255      0.008466
      7.57907      4.99065      4.16721        -0.000991      0.000577     -0.002797
      0.93394     14.90246      3.39918        -0.000998      0.001242      0.000946
      2.59858     12.60385      3.88650        -0.001227      0.000568     -0.001254
      5.14245     15.08980      4.36243        -0.001299      0.002384      0.000241
      3.17384      6.03343      4.05516         0.001826      0.000314      0.004026
      5.07239     10.58649      4.23967         0.000813      0.004186     -0.002351
     16.54784      7.77786      4.15228        -0.000705     -0.003059     -0.002033
      9.03234      8.87315      4.98839         0.002643     -0.005657     -0.003372
     13.27901      5.98351      5.07044        -0.003138      0.001866      0.004515
     15.74538      0.12831      5.61738        -0.000919      0.000530     -0.000468
      6.35197      1.48995      6.13546         0.000402      0.001805      0.000451
     14.65673     13.26905      5.16517        -0.003732      0.002423     -0.005563
     10.42548     12.99878      5.42353        -0.001792      0.002727     -0.001755
      2.48849      0.35693      5.98509        -0.002905      0.001272      0.000031
     12.81231      9.85060      6.35190         0.003358      0.006147      0.000037
     11.88227     15.92581      6.77986        -0.000739      0.000156      0.001920
     11.13324      2.80773      6.78293        -0.000060     -0.005311      0.001719
      2.01946      9.96180      6.62594        -0.001013     -0.001928     -0.002987
      7.50719     14.78301      7.03680        -0.002270      0.002168      0.000651
      0.03304      4.16242      6.31086        -0.002161     -0.001862     -0.000013
      5.31992      7.46488      6.92904         0.000479      0.001025     -0.001688
      3.71278      3.83026      8.14838        -0.001532     -0.001949      0.003503
      7.95989      5.02194      8.01722        -0.004215     -0.000303     -0.000577
      3.36674     13.59495      8.23488        -0.000012     -0.000523     -0.003425
     16.18096      7.89219      8.25432        -0.001706      0.001092     -0.002314
     14.52304      3.08821      9.08877        -0.000302      0.002079     -0.000520
      0.44324      0.84789      8.74058        -0.000436     -0.005088      0.000832
     11.81654      6.27378      9.01262        -0.006310     -0.003400     -0.001564
     12.11904     10.62697      9.88080        -0.002644     -0.001413      0.000927
      8.89476      0.67813      9.51943         0.000013     -0.004329      0.001818
     16.71846     12.06588      9.33056         0.001920     -0.002404     -0.002291
     15.15284     14.59097      8.93503         0.000669     -0.001497     -0.005280
      4.50440      0.24000      9.77360        -0.000975     -0.001550      0.002508
      2.90639      7.41884      9.72046        -0.001244      0.002376     -0.001364
     10.64530     14.06275      9.78535        -0.000995     -0.001673     -0.000310
     12.14323      0.46011     10.70373         0.004366     -0.001603      0.002142
      0.30870      4.33316     11.03024        -0.000854     -0.000803      0.001936
      6.48260     14.42878     11.17555        -0.001162     -0.001684      0.002337
      5.80152     10.85118     11.20656        -0.000545     -0.002871      0.004460
      6.36849      4.64215     11.53520        -0.002164     -0.001237     -0.000791
      1.60650     15.57120     11.65738        -0.000203     -0.001742      0.000679
     17.06003      8.44566     12.21477         0.006303     -0.001816      0.005104
      9.07455     11.19601     12.52936         0.000599      0.000854      0.004125
     12.62448      4.17616     12.53622         0.000697      0.000012      0.001186
     11.99991      7.73477     12.75958        -0.002288     -0.000526      0.000432
      6.85265      1.45698     13.38028         0.002187      0.001288     -0.000281
      7.77671      7.82845     13.45129        -0.005249     -0.001679      0.001036
      2.94479      1.90622     13.50378         0.000638     -0.001391      0.003227
      9.85756     15.36682     13.15517        -0.000384      0.004308     -0.002337
      3.49591      8.69047     14.11689         0.003958     -0.001959      0.002070
      3.97998     13.71678     13.95754        -0.001602     -0.003620     -0.008768
     10.28569      2.13791     13.96101         0.001521      0.001623     -0.000890
     15.40303     16.22458     14.35492        -0.000653      0.000353      0.000270
      0.48577     11.70198     14.43751         0.003735     -0.002278      0.001199
     16.17382      5.27404     14.81578         0.004883     -0.001079      0.004816
     13.18227     13.22149     14.53172         0.001978      0.001255     -0.001435
      5.81276      5.14306     15.43557        -0.003136     -0.001268     -0.000007
     14.46775      8.89463     15.36075         0.001460     -0.000510     -0.001027
     13.55518      2.49972     16.39921         0.002098      0.000676      0.001470
     10.55814     10.11810     16.11492        -0.000201      0.001950     -0.001092
     10.10681      5.42385     16.76419        -0.000635      0.002418      0.000200
      3.19354     17.08463      0.28945        -0.002783      0.001429      0.002224
     11.87228     16.66376     16.55680        -0.000337      0.002221     -0.000494
 -----------------------------------------------------------------------------------
    total drift:                               -0.012746     -0.031809     -0.006477


--------------------------------------------------------------------------------------------------------



  FREE ENERGIE OF THE ION-ELECTRON SYSTEM (eV)
  ---------------------------------------------------
  free  energy   TOTEN  =      -525.64197296 eV

  energy  without entropy=     -525.64187703  energy(sigma->0) =     -525.64192499
 
 d Force = 0.1190609E-03[ 0.209E-04, 0.217E-03]  d Energy = 0.1551666E-03-0.361E-04
 d Force =-0.2889012E+00[-0.290E+00,-0.288E+00]  d Ewald  =-0.2889013E+00 0.461E-07


--------------------------------------------------------------------------------------------------------


    POTLOK:  cpu time    0.2047: real time    0.2048


--------------------------------------------------------------------------------------------------------




--------------------------------------------------------------------------------------------------------


  
 reached required accuracy - stopping structural energy minimisation
     LOOP+:  cpu time   29.4195: real time   29.4587
    4ORBIT:  cpu time    0.0000: real time    0.0000

 total amount of memory used by VASP MPI-rank0   144464. kBytes
=======================================================================

   base      :      30000. kBytes
   nonlr-proj:       3870. kBytes
   fftplans  :       8673. kBytes
   grid      :      14958. kBytes
   one-center:        292. kBytes
   wavefun   :      86671. kBytes
 
  
  
 General timing and accounting informations for this job:
 ========================================================
  
                  Total CPU time used (sec):      422.045
                            User time (sec):      407.792
                          System time (sec):       14.253
                         Elapsed time (sec):      424.072
  
                   Maximum memory used (kb):      813900.
                   Average memory used (kb):           0.
  
                          Minor page faults:        74689
                          Major page faults:            0
                 Voluntary context switches:         7450
